Built with Packmol
12656
    1SOL     OW    1   1.937   2.748   1.014
    1SOL    HW1    2   2.027   2.720   1.047
    1SOL    HW2    3   1.915   2.699   0.930
    2SOL     OW    4   2.747   4.556   4.661
    2SOL    HW1    5   2.814   4.482   4.659
    2SOL    HW2    6   2.795   4.644   4.666
    3SOL     OW    7   3.111   5.339   2.686
    3SOL    HW1    8   3.193   5.336   2.743
    3SOL    HW2    9   3.030   5.316   2.742
    4SOL     OW   10   4.848   3.011   1.670
    4SOL    HW1   11   4.944   3.041   1.666
    4SOL    HW2   12   4.846   2.911   1.674
    5SOL     OW   13   4.879   5.293   1.611
    5SOL    HW1   14   4.937   5.372   1.590
    5SOL    HW2   15   4.892   5.267   1.707
    6SOL     OW   16   5.476   2.295   1.224
    6SOL    HW1   17   5.572   2.278   1.247
    6SOL    HW2   18   5.471   2.370   1.158
    7SOL     OW   19   2.044   5.756   1.002
    7SOL    HW1   20   1.981   5.678   1.000
    7SOL    HW2   21   2.137   5.723   1.016
    8SOL     OW   22   2.529   0.309   4.763
    8SOL    HW1   23   2.511   0.360   4.847
    8SOL    HW2   24   2.607   0.248   4.776
    9SOL     OW   25   0.333   4.856   3.445
    9SOL    HW1   26   0.402   4.797   3.487
    9SOL    HW2   27   0.376   4.913   3.375
   10SOL     OW   28   0.648   1.025   0.655
   10SOL    HW1   29   0.724   1.007   0.716
   10SOL    HW2   30   0.584   1.088   0.698
   11SOL     OW   31   0.069   6.016   0.403
   11SOL    HW1   32   0.103   6.074   0.477
   11SOL    HW2   33   0.127   6.028   0.322
   12SOL     OW   34   0.169   4.421   3.330
   12SOL    HW1   35   0.174   4.351   3.401
   12SOL    HW2   36   0.104   4.393   3.260
   13SOL     OW   37   4.755   4.932   2.625
   13SOL    HW1   38   4.673   4.900   2.671
   13SOL    HW2   39   4.828   4.864   2.634
   14SOL     OW   40   5.671   1.425   1.533
   14SOL    HW1   41   5.767   1.432   1.506
   14SOL    HW2   42   5.646   1.329   1.545
   15SOL     OW   43   3.277   2.292   2.412
   15SOL    HW1   44   3.239   2.201   2.424
   15SOL    HW2   45   3.343   2.311   2.484
   16SOL     OW   46   4.176   4.142   4.483
   16SOL    HW1   47   4.213   4.220   4.534
   16SOL    HW2   48   4.100   4.102   4.535
   17SOL     OW   49   3.208   3.111   3.065
   17SOL    HW1   50   3.298   3.080   3.034
   17SOL    HW2   51   3.142   3.101   2.991
   18SOL     OW   52   2.570   5.415   0.539
   18SOL    HW1   53   2.545   5.322   0.565
   18SOL    HW2   54   2.497   5.454   0.482
   19SOL     OW   55   2.323   0.500   1.949
   19SOL    HW1   56   2.394   0.476   2.015
   19SOL    HW2   57   2.279   0.586   1.977
   20SOL     OW   58   3.710   5.596   2.819
   20SOL    HW1   59   3.621   5.551   2.818
   20SOL    HW2   60   3.783   5.527   2.820
   21SOL     OW   61   0.675   5.417   2.530
   21SOL    HW1   62   0.613   5.345   2.498
   21SOL    HW2   63   0.766   5.379   2.546
   22SOL     OW   64   6.232   5.590   0.675
   22SOL    HW1   65   6.307   5.656   0.673
   22SOL    HW2   66   6.267   5.499   0.654
   23SOL     OW   67   5.202   1.431   0.159
   23SOL    HW1   68   5.254   1.515   0.145
   23SOL    HW2   69   5.177   1.423   0.256
   24SOL     OW   70   2.210   3.379   4.736
   24SOL    HW1   71   2.212   3.372   4.637
   24SOL    HW2   72   2.220   3.288   4.777
   25SOL     OW   73   4.107   5.535   4.207
   25SOL    HW1   74   4.179   5.465   4.208
   25SOL    HW2   75   4.018   5.491   4.190
   26SOL     OW   76   3.978   0.729   2.912
   26SOL    HW1   77   4.006   0.726   2.816
   26SOL    HW2   78   3.885   0.765   2.919
   27SOL     OW   79   1.204   2.083   0.763
   27SOL    HW1   80   1.274   2.030   0.811
   27SOL    HW2   81   1.115   2.038   0.772
   28SOL     OW   82   4.394   5.188   1.965
   28SOL    HW1   83   4.323   5.143   2.019
   28SOL    HW2   84   4.482   5.177   2.010
   29SOL     OW   85   2.160   3.578   0.579
   29SOL    HW1   86   2.165   3.678   0.571
   29SOL    HW2   87   2.252   3.540   0.584
   30SOL     OW   88   0.517   4.129   3.433
   30SOL    HW1   89   0.518   4.193   3.510
   30SOL    HW2   90   0.445   4.155   3.368
   31SOL     OW   91   0.115   1.913   4.181
   31SOL    HW1   92   0.193   1.958   4.138
   31SOL    HW2   93   0.145   1.830   4.227
   32SOL     OW   94   3.741   5.919   1.100
   32SOL    HW1   95   3.651   5.957   1.077
   32SOL    HW2   96   3.773   5.863   1.024
   33SOL     OW   97   0.727   4.371   4.259
   33SOL    HW1   98   0.742   4.272   4.261
   33SOL    HW2   99   0.810   4.418   4.290
   34SOL     OW  100   3.561   1.837   1.905
   34SOL    HW1  101   3.604   1.927   1.898
   34SOL    HW2  102   3.467   1.847   1.938
   35SOL     OW  103   1.478   1.849   4.343
   35SOL    HW1  104   1.505   1.939   4.378
   35SOL    HW2  105   1.548   1.816   4.279
   36SOL     OW  106   1.574   3.485   1.585
   36SOL    HW1  107   1.587   3.409   1.648
   36SOL    HW2  108   1.476   3.501   1.571
   37SOL     OW  109   5.713   6.096   1.775
   37SOL    HW1  110   5.761   6.152   1.843
   37SOL    HW2  111   5.696   6.150   1.693
   38SOL     OW  112   2.141   3.472   0.089
   38SOL    HW1  113   2.135   3.377   0.059
   38SOL    HW2  114   2.071   3.526   0.042
   39SOL     OW  115   3.703   1.261   0.398
   39SOL    HW1  116   3.797   1.253   0.364
   39SOL    HW2  117   3.684   1.356   0.420
   40SOL     OW  118   3.080   5.515   0.055
   40SOL    HW1  119   3.002   5.482   0.001
   40SOL    HW2  120   3.123   5.592   0.008
   41SOL     OW  121   3.366   3.569   2.301
   41SOL    HW1  122   3.294   3.622   2.257
   41SOL    HW2  123   3.358   3.473   2.274
   42SOL     OW  124   2.267   0.407   4.104
   42SOL    HW1  125   2.299   0.461   4.182
   42SOL    HW2  126   2.228   0.321   4.138
   43SOL     OW  127   0.098   1.613   2.078
   43SOL    HW1  128   0.093   1.710   2.099
   43SOL    HW2  129   0.006   1.573   2.079
   44SOL     OW  130   1.600   0.151   3.110
   44SOL    HW1  131   1.508   0.189   3.119
   44SOL    HW2  132   1.595   0.051   3.107
   45SOL     OW  133   2.742   4.639   4.473
   45SOL    HW1  134   2.816   4.572   4.474
   45SOL    HW2  135   2.780   4.731   4.469
   46SOL     OW  136   2.800   4.403   1.335
   46SOL    HW1  137   2.848   4.365   1.414
   46SOL    HW2  138   2.769   4.496   1.357
   47SOL     OW  139   0.740   1.325   1.793
   47SOL    HW1  140   0.804   1.270   1.848
   47SOL    HW2  141   0.689   1.386   1.853
   48SOL     OW  142   6.229   4.995   0.497
   48SOL    HW1  143   6.299   5.047   0.547
   48SOL    HW2  144   6.244   5.006   0.399
   49SOL     OW  145   5.832   2.370   0.625
   49SOL    HW1  146   5.788   2.319   0.551
   49SOL    HW2  147   5.869   2.456   0.590
   50SOL     OW  148   5.354   0.466   3.854
   50SOL    HW1  149   5.387   0.561   3.860
   50SOL    HW2  150   5.254   0.465   3.857
   51SOL     OW  151   0.996   5.355   4.324
   51SOL    HW1  152   0.927   5.319   4.260
   51SOL    HW2  153   0.979   5.452   4.340
   52SOL     OW  154   4.399   4.678   2.953
   52SOL    HW1  155   4.387   4.774   2.980
   52SOL    HW2  156   4.493   4.650   2.971
   53SOL     OW  157   1.569   2.639   1.466
   53SOL    HW1  158   1.474   2.613   1.478
   53SOL    HW2  159   1.576   2.739   1.461
   54SOL     OW  160   5.220   3.501   0.927
   54SOL    HW1  161   5.143   3.516   0.866
   54SOL    HW2  162   5.279   3.429   0.889
   55SOL     OW  163   0.507   3.350   3.034
   55SOL    HW1  164   0.420   3.362   3.083
   55SOL    HW2  165   0.534   3.254   3.038
   56SOL     OW  166   2.539   5.562   4.861
   56SOL    HW1  167   2.478   5.484   4.851
   56SOL    HW2  168   2.634   5.532   4.857
   57SOL     OW  169   0.081   4.798   1.733
   57SOL    HW1  170   0.000   4.819   1.678
   57SOL    HW2  171   0.101   4.875   1.794
   58SOL     OW  172   3.420   4.705   4.840
   58SOL    HW1  173   3.323   4.714   4.821
   58SOL    HW2  174   3.458   4.631   4.783
   59SOL     OW  175   2.949   5.789   3.350
   59SOL    HW1  176   2.948   5.689   3.352
   59SOL    HW2  177   2.856   5.824   3.366
   60SOL     OW  178   4.954   6.123   0.664
   60SOL    HW1  179   4.947   6.054   0.736
   60SOL    HW2  180   5.023   6.190   0.689
   61SOL     OW  181   4.230   1.826   1.796
   61SOL    HW1  182   4.192   1.881   1.723
   61SOL    HW2  183   4.160   1.807   1.865
   62SOL     OW  184   4.984   0.040   3.040
   62SOL    HW1  185   4.988   0.019   2.943
   62SOL    HW2  186   5.071   0.080   3.069
   63SOL     OW  187   0.512   0.137   4.719
   63SOL    HW1  188   0.429   0.083   4.704
   63SOL    HW2  189   0.489   0.234   4.722
   64SOL     OW  190   1.781   2.283   1.991
   64SOL    HW1  191   1.874   2.302   2.022
   64SOL    HW2  192   1.785   2.241   1.900
   65SOL     OW  193   4.947   5.631   1.351
   65SOL    HW1  194   5.008   5.633   1.273
   65SOL    HW2  195   4.995   5.665   1.432
   66SOL     OW  196   5.861   5.494   1.720
   66SOL    HW1  197   5.870   5.433   1.641
   66SOL    HW2  198   5.951   5.529   1.745
   67SOL     OW  199   1.459   0.898   4.186
   67SOL    HW1  200   1.540   0.953   4.171
   67SOL    HW2  201   1.485   0.806   4.216
   68SOL     OW  202   4.945   4.700   3.331
   68SOL    HW1  203   4.899   4.635   3.391
   68SOL    HW2  204   4.881   4.773   3.305
   69SOL     OW  205   0.699   5.641   2.784
   69SOL    HW1  206   0.633   5.711   2.812
   69SOL    HW2  207   0.651   5.569   2.732
   70SOL     OW  208   5.304   3.050   4.587
   70SOL    HW1  209   5.216   3.099   4.589
   70SOL    HW2  210   5.287   2.951   4.587
   71SOL     OW  211   4.546   1.342   2.395
   71SOL    HW1  212   4.564   1.342   2.296
   71SOL    HW2  213   4.448   1.355   2.411
   72SOL     OW  214   5.341   5.665   1.026
   72SOL    HW1  215   5.424   5.698   1.071
   72SOL    HW2  216   5.282   5.743   1.005
   73SOL     OW  217   3.766   2.894   4.208
   73SOL    HW1  218   3.861   2.905   4.181
   73SOL    HW2  219   3.760   2.887   4.307
   74SOL     OW  220   2.277   2.943   0.758
   74SOL    HW1  221   2.224   2.932   0.842
   74SOL    HW2  222   2.215   2.955   0.680
   75SOL     OW  223   0.769   2.101   4.905
   75SOL    HW1  224   0.710   2.020   4.904
   75SOL    HW2  225   0.845   2.086   4.842
   76SOL     OW  226   1.463   2.250   3.111
   76SOL    HW1  227   1.402   2.218   3.184
   76SOL    HW2  228   1.409   2.278   3.032
   77SOL     OW  229   2.474   4.249   1.493
   77SOL    HW1  230   2.490   4.345   1.518
   77SOL    HW2  231   2.560   4.198   1.501
   78SOL     OW  232   3.223   5.099   3.821
   78SOL    HW1  233   3.311   5.064   3.852
   78SOL    HW2  234   3.192   5.046   3.742
   79SOL     OW  235   6.050   6.060   2.246
   79SOL    HW1  236   5.954   6.034   2.254
   79SOL    HW2  237   6.066   6.145   2.296
   80SOL     OW  238   4.654   5.030   1.816
   80SOL    HW1  239   4.640   5.119   1.771
   80SOL    HW2  240   4.607   5.030   1.905
   81SOL     OW  241   3.813   2.287   3.222
   81SOL    HW1  242   3.872   2.226   3.169
   81SOL    HW2  243   3.870   2.355   3.270
   82SOL     OW  244   4.516   1.261   3.617
   82SOL    HW1  245   4.435   1.319   3.606
   82SOL    HW2  246   4.591   1.298   3.563
   83SOL     OW  247   4.543   2.962   2.614
   83SOL    HW1  248   4.635   2.964   2.651
   83SOL    HW2  249   4.491   2.888   2.657
   84SOL     OW  250   5.902   2.993   4.137
   84SOL    HW1  251   5.822   2.949   4.180
   84SOL    HW2  252   5.882   3.089   4.121
   85SOL     OW  253   4.867   4.239   4.309
   85SOL    HW1  254   4.768   4.233   4.316
   85SOL    HW2  255   4.906   4.146   4.305
   86SOL     OW  256   2.524   2.066   4.271
   86SOL    HW1  257   2.618   2.037   4.286
   86SOL    HW2  258   2.520   2.166   4.271
   87SOL     OW  259   4.813   2.476   3.844
   87SOL    HW1  260   4.898   2.441   3.884
   87SOL    HW2  261   4.737   2.457   3.906
   88SOL     OW  262   4.918   2.279   4.244
   88SOL    HW1  263   4.845   2.218   4.213
   88SOL    HW2  264   4.887   2.374   4.237
   89SOL     OW  265   2.054   1.264   0.078
   89SOL    HW1  266   1.980   1.280   0.143
   89SOL    HW2  267   2.052   1.169   0.047
   90SOL     OW  268   0.742   3.392   1.877
   90SOL    HW1  269   0.671   3.387   1.808
   90SOL    HW2  270   0.826   3.428   1.837
   91SOL     OW  271   4.408   1.118   3.926
   91SOL    HW1  272   4.489   1.075   3.885
   91SOL    HW2  273   4.428   1.144   4.020
   92SOL     OW  274   2.519   3.939   3.332
   92SOL    HW1  275   2.438   3.936   3.390
   92SOL    HW2  276   2.493   3.973   3.241
   93SOL     OW  277   2.030   5.366   0.778
   93SOL    HW1  278   2.101   5.358   0.708
   93SOL    HW2  279   2.058   5.434   0.846
   94SOL     OW  280   4.114   5.195   0.972
   94SOL    HW1  281   4.206   5.184   0.935
   94SOL    HW2  282   4.081   5.106   1.003
   95SOL     OW  283   1.762   4.971   0.060
   95SOL    HW1  284   1.688   4.918   0.100
   95SOL    HW2  285   1.728   5.062   0.034
   96SOL     OW  286   4.731   0.877   3.634
   96SOL    HW1  287   4.667   0.810   3.672
   96SOL    HW2  288   4.694   0.969   3.644
   97SOL     OW  289   2.512   6.137   4.138
   97SOL    HW1  290   2.582   6.080   4.181
   97SOL    HW2  291   2.446   6.080   4.090
   98SOL     OW  292   3.327   2.687   1.684
   98SOL    HW1  293   3.274   2.772   1.685
   98SOL    HW2  294   3.424   2.708   1.680
   99SOL     OW  295   4.840   5.875   1.896
   99SOL    HW1  296   4.832   5.776   1.907
   99SOL    HW2  297   4.759   5.920   1.934
  100SOL     OW  298   5.605   5.924   2.757
  100SOL    HW1  299   5.509   5.896   2.749
  100SOL    HW2  300   5.610   6.024   2.755
  101SOL     OW  301   2.763   5.872   3.793
  101SOL    HW1  302   2.777   5.948   3.856
  101SOL    HW2  303   2.825   5.882   3.715
  102SOL     OW  304   4.630   3.878   0.618
  102SOL    HW1  305   4.554   3.877   0.553
  102SOL    HW2  306   4.692   3.801   0.598
  103SOL     OW  307   0.954   2.004   3.114
  103SOL    HW1  308   0.882   2.014   3.183
  103SOL    HW2  309   0.993   2.094   3.093
  104SOL     OW  310   1.972   2.131   4.928
  104SOL    HW1  311   1.916   2.060   4.970
  104SOL    HW2  312   2.002   2.196   4.998
  105SOL     OW  313   6.195   0.096   1.332
  105SOL    HW1  314   6.257   0.157   1.380
  105SOL    HW2  315   6.131   0.054   1.397
  106SOL     OW  316   5.706   5.780   4.593
  106SOL    HW1  317   5.780   5.719   4.564
  106SOL    HW2  318   5.695   5.774   4.693
  107SOL     OW  319   1.731   2.681   2.840
  107SOL    HW1  320   1.828   2.657   2.844
  107SOL    HW2  321   1.722   2.780   2.834
  108SOL     OW  322   2.415   5.748   2.751
  108SOL    HW1  323   2.514   5.762   2.745
  108SOL    HW2  324   2.396   5.650   2.756
  109SOL     OW  325   4.459   0.448   1.032
  109SOL    HW1  326   4.542   0.393   1.017
  109SOL    HW2  327   4.380   0.387   1.043
  110SOL     OW  328   4.496   3.834   2.220
  110SOL    HW1  329   4.435   3.820   2.298
  110SOL    HW2  330   4.585   3.793   2.239
  111SOL     OW  331   3.679   4.938   4.202
  111SOL    HW1  332   3.603   4.997   4.228
  111SOL    HW2  333   3.762   4.992   4.192
  112SOL     OW  334   5.341   4.024   3.291
  112SOL    HW1  335   5.263   4.084   3.273
  112SOL    HW2  336   5.325   3.935   3.248
  113SOL     OW  337   0.577   0.108   1.005
  113SOL    HW1  338   0.671   0.074   0.998
  113SOL    HW2  339   0.577   0.208   1.008
  114SOL     OW  340   0.533   3.048   1.224
  114SOL    HW1  341   0.569   2.956   1.207
  114SOL    HW2  342   0.581   3.089   1.301
  115SOL     OW  343   2.729   4.974   2.624
  115SOL    HW1  344   2.780   4.964   2.539
  115SOL    HW2  345   2.666   4.897   2.635
  116SOL     OW  346   3.188   5.809   4.544
  116SOL    HW1  347   3.200   5.710   4.558
  116SOL    HW2  348   3.251   5.859   4.603
  117SOL     OW  349   5.317   4.099   2.056
  117SOL    HW1  350   5.402   4.063   2.018
  117SOL    HW2  351   5.324   4.198   2.067
  118SOL     OW  352   0.559   2.853   2.296
  118SOL    HW1  353   0.527   2.803   2.377
  118SOL    HW2  354   0.641   2.809   2.260
  119SOL     OW  355   1.581   4.318   1.494
  119SOL    HW1  356   1.676   4.349   1.493
  119SOL    HW2  357   1.575   4.225   1.460
  120SOL     OW  358   2.304   5.696   4.567
  120SOL    HW1  359   2.330   5.785   4.529
  120SOL    HW2  360   2.355   5.679   4.650
  121SOL     OW  361   3.852   0.545   1.575
  121SOL    HW1  362   3.801   0.630   1.589
  121SOL    HW2  363   3.895   0.546   1.485
  122SOL     OW  364   1.716   2.072   1.774
  122SOL    HW1  365   1.781   2.024   1.715
  122SOL    HW2  366   1.681   2.009   1.844
  123SOL     OW  367   1.914   2.189   3.474
  123SOL    HW1  368   1.872   2.256   3.536
  123SOL    HW2  369   2.013   2.204   3.472
  124SOL     OW  370   4.089   3.255   0.855
  124SOL    HW1  371   4.080   3.237   0.953
  124SOL    HW2  372   4.001   3.286   0.819
  125SOL     OW  373   0.025   1.612   2.642
  125SOL    HW1  374   0.000   1.642   2.734
  125SOL    HW2  375   0.115   1.649   2.618
  126SOL     OW  376   0.022   3.655   3.690
  126SOL    HW1  377   0.031   3.620   3.783
  126SOL    HW2  378   0.085   3.732   3.677
  127SOL     OW  379   4.730   2.067   1.756
  127SOL    HW1  380   4.797   2.101   1.689
  127SOL    HW2  381   4.716   1.969   1.742
  128SOL     OW  382   0.605   5.668   1.006
  128SOL    HW1  383   0.606   5.738   1.078
  128SOL    HW2  384   0.514   5.629   0.998
  129SOL     OW  385   6.004   2.659   3.663
  129SOL    HW1  386   6.052   2.743   3.689
  129SOL    HW2  387   5.907   2.668   3.685
  130SOL     OW  388   2.235   4.004   3.135
  130SOL    HW1  389   2.221   4.100   3.157
  130SOL    HW2  390   2.188   3.982   3.049
  131SOL     OW  391   3.548   1.472   1.359
  131SOL    HW1  392   3.477   1.423   1.409
  131SOL    HW2  393   3.609   1.407   1.314
  132SOL     OW  394   4.479   5.580   0.536
  132SOL    HW1  395   4.388   5.588   0.575
  132SOL    HW2  396   4.547   5.613   0.603
  133SOL     OW  397   0.484   4.974   1.501
  133SOL    HW1  398   0.521   5.066   1.486
  133SOL    HW2  399   0.532   4.931   1.577
  134SOL     OW  400   3.318   0.018   3.525
  134SOL    HW1  401   3.383   0.001   3.451
  134SOL    HW2  402   3.357   0.085   3.589
  135SOL     OW  403   1.826   3.230   0.251
  135SOL    HW1  404   1.803   3.327   0.249
  135SOL    HW2  405   1.744   3.177   0.271
  136SOL     OW  406   3.394   2.525   0.933
  136SOL    HW1  407   3.467   2.576   0.978
  136SOL    HW2  408   3.313   2.583   0.923
  137SOL     OW  409   3.118   2.157   3.174
  137SOL    HW1  410   3.175   2.188   3.099
  137SOL    HW2  411   3.033   2.118   3.138
  138SOL     OW  412   1.589   2.344   3.528
  138SOL    HW1  413   1.664   2.403   3.499
  138SOL    HW2  414   1.508   2.399   3.549
  139SOL     OW  415   0.061   2.608   2.378
  139SOL    HW1  416   0.001   2.555   2.318
  139SOL    HW2  417   0.157   2.588   2.355
  140SOL     OW  418   3.569   3.244   2.454
  140SOL    HW1  419   3.560   3.181   2.376
  140SOL    HW2  420   3.617   3.326   2.423
  141SOL     OW  421   5.621   0.749   4.419
  141SOL    HW1  422   5.587   0.843   4.416
  141SOL    HW2  423   5.716   0.748   4.449
  142SOL     OW  424   0.831   3.826   3.272
  142SOL    HW1  425   0.919   3.778   3.270
  142SOL    HW2  426   0.757   3.760   3.256
  143SOL     OW  427   5.899   5.547   3.001
  143SOL    HW1  428   5.826   5.510   3.059
  143SOL    HW2  429   5.937   5.629   3.044
  144SOL     OW  430   4.217   3.897   0.859
  144SOL    HW1  431   4.280   3.855   0.794
  144SOL    HW2  432   4.227   3.851   0.948
  145SOL     OW  433   1.169   5.260   4.587
  145SOL    HW1  434   1.255   5.298   4.553
  145SOL    HW2  435   1.175   5.160   4.588
  146SOL     OW  436   4.353   4.031   2.199
  146SOL    HW1  437   4.402   4.091   2.136
  146SOL    HW2  438   4.313   3.955   2.149
  147SOL     OW  439   1.630   2.791   4.805
  147SOL    HW1  440   1.631   2.691   4.811
  147SOL    HW2  441   1.536   2.823   4.798
  148SOL     OW  442   4.944   0.000   2.366
  148SOL    HW1  443   5.033   0.000   2.412
  148SOL    HW2  444   4.899   0.088   2.381
  149SOL     OW  445   0.508   3.498   4.531
  149SOL    HW1  446   0.508   3.413   4.584
  149SOL    HW2  447   0.594   3.505   4.479
  150SOL     OW  448   1.181   4.512   2.590
  150SOL    HW1  449   1.245   4.548   2.522
  150SOL    HW2  450   1.140   4.427   2.557
  151SOL     OW  451   5.799   3.990   1.503
  151SOL    HW1  452   5.739   4.012   1.580
  151SOL    HW2  453   5.806   3.891   1.493
  152SOL     OW  454   3.816   3.703   0.278
  152SOL    HW1  455   3.739   3.739   0.332
  152SOL    HW2  456   3.861   3.777   0.230
  153SOL     OW  457   0.846   3.944   3.032
  153SOL    HW1  458   0.826   3.849   3.052
  153SOL    HW2  459   0.859   3.956   2.933
  154SOL     OW  460   3.714   0.805   4.504
  154SOL    HW1  461   3.659   0.760   4.433
  154SOL    HW2  462   3.714   0.904   4.489
  155SOL     OW  463   4.098   4.624   1.248
  155SOL    HW1  464   4.111   4.681   1.329
  155SOL    HW2  465   4.099   4.528   1.276
  156SOL     OW  466   3.974   5.309   2.704
  156SOL    HW1  467   3.874   5.320   2.703
  156SOL    HW2  468   3.997   5.212   2.709
  157SOL     OW  469   2.089   5.146   2.144
  157SOL    HW1  470   2.159   5.211   2.174
  157SOL    HW2  471   1.998   5.181   2.169
  158SOL     OW  472   3.848   1.174   4.338
  158SOL    HW1  473   3.851   1.238   4.415
  158SOL    HW2  474   3.859   1.081   4.373
  159SOL     OW  475   4.549   5.840   1.709
  159SOL    HW1  476   4.622   5.899   1.743
  159SOL    HW2  477   4.580   5.745   1.713
  160SOL     OW  478   6.051   5.932   2.990
  160SOL    HW1  479   6.015   6.013   2.943
  160SOL    HW2  480   6.130   5.897   2.939
  161SOL     OW  481   1.696   2.563   3.085
  161SOL    HW1  482   1.621   2.567   3.151
  161SOL    HW2  483   1.685   2.481   3.028
  162SOL     OW  484   5.824   2.945   0.059
  162SOL    HW1  485   5.884   3.000   0.118
  162SOL    HW2  486   5.769   3.007   0.002
  163SOL     OW  487   3.353   6.153   3.235
  163SOL    HW1  488   3.367   6.068   3.285
  163SOL    HW2  489   3.438   6.182   3.192
  164SOL     OW  490   2.705   3.293   1.921
  164SOL    HW1  491   2.805   3.296   1.923
  164SOL    HW2  492   2.675   3.198   1.920
  165SOL     OW  493   2.192   3.797   2.680
  165SOL    HW1  494   2.114   3.766   2.736
  165SOL    HW2  495   2.158   3.839   2.596
  166SOL     OW  496   4.885   5.146   2.007
  166SOL    HW1  497   4.892   5.064   2.064
  166SOL    HW2  498   4.791   5.157   1.975
  167SOL     OW  499   0.400   0.389   1.519
  167SOL    HW1  500   0.394   0.369   1.421
  167SOL    HW2  501   0.471   0.459   1.534
  168SOL     OW  502   2.835   3.163   0.534
  168SOL    HW1  503   2.740   3.168   0.563
  168SOL    HW2  504   2.860   3.248   0.487
  169SOL     OW  505   6.011   4.511   2.978
  169SOL    HW1  506   6.093   4.566   2.989
  169SOL    HW2  507   5.985   4.506   2.881
  170SOL     OW  508   3.710   5.633   0.059
  170SOL    HW1  509   3.619   5.598   0.034
  170SOL    HW2  510   3.776   5.558   0.057
  171SOL     OW  511   1.260   0.311   3.613
  171SOL    HW1  512   1.312   0.226   3.609
  171SOL    HW2  513   1.185   0.307   3.547
  172SOL     OW  514   5.808   1.283   4.910
  172SOL    HW1  515   5.716   1.275   4.871
  172SOL    HW2  516   5.843   1.375   4.893
  173SOL     OW  517   3.546   0.100   1.537
  173SOL    HW1  518   3.639   0.134   1.536
  173SOL    HW2  519   3.546  -0.000   1.536
  174SOL     OW  520   5.307   1.736   3.842
  174SOL    HW1  521   5.390   1.681   3.843
  174SOL    HW2  522   5.326   1.825   3.799
  175SOL     OW  523   1.373   5.490   0.373
  175SOL    HW1  524   1.329   5.464   0.460
  175SOL    HW2  525   1.472   5.475   0.381
  176SOL     OW  526   0.659   6.065   3.272
  176SOL    HW1  527   0.737   6.032   3.326
  176SOL    HW2  528   0.692   6.124   3.198
  177SOL     OW  529   1.957   0.462   0.573
  177SOL    HW1  530   1.994   0.394   0.510
  177SOL    HW2  531   1.929   0.544   0.522
  178SOL     OW  532   2.541   2.207   0.032
  178SOL    HW1  533   2.631   2.164   0.034
  178SOL    HW2  534   2.470   2.137   0.035
  179SOL     OW  535   4.046   2.876   2.856
  179SOL    HW1  536   4.050   2.974   2.838
  179SOL    HW2  537   4.137   2.836   2.844
  180SOL     OW  538   0.866   4.932   0.215
  180SOL    HW1  539   0.850   4.853   0.274
  180SOL    HW2  540   0.822   5.013   0.255
  181SOL     OW  541   5.251   0.352   2.583
  181SOL    HW1  542   5.253   0.451   2.599
  181SOL    HW2  543   5.196   0.309   2.654
  182SOL     OW  544   1.567   5.302   3.101
  182SOL    HW1  545   1.560   5.202   3.097
  182SOL    HW2  546   1.475   5.341   3.099
  183SOL     OW  547   1.428   4.671   3.463
  183SOL    HW1  548   1.389   4.690   3.373
  183SOL    HW2  549   1.528   4.681   3.459
  184SOL     OW  550   4.545   1.926   3.684
  184SOL    HW1  551   4.558   1.829   3.661
  184SOL    HW2  552   4.464   1.937   3.740
  185SOL     OW  553   0.705   4.132   3.827
  185SOL    HW1  554   0.678   4.220   3.865
  185SOL    HW2  555   0.749   4.077   3.898
  186SOL     OW  556   4.563   0.152   0.800
  186SOL    HW1  557   4.579   0.066   0.848
  186SOL    HW2  558   4.543   0.224   0.867
  187SOL     OW  559   3.398   2.699   3.474
  187SOL    HW1  560   3.298   2.689   3.469
  187SOL    HW2  561   3.441   2.612   3.450
  188SOL     OW  562   5.490   5.937   1.063
  188SOL    HW1  563   5.565   5.875   1.039
  188SOL    HW2  564   5.525   6.031   1.067
  189SOL     OW  565   1.021   3.700   0.823
  189SOL    HW1  566   0.941   3.641   0.827
  189SOL    HW2  567   1.104   3.644   0.817
  190SOL     OW  568   1.169   5.775   1.734
  190SOL    HW1  569   1.075   5.743   1.725
  190SOL    HW2  570   1.220   5.751   1.652
  191SOL     OW  571   3.944   1.871   2.351
  191SOL    HW1  572   3.862   1.852   2.404
  191SOL    HW2  573   3.923   1.864   2.253
  192SOL     OW  574   1.269   5.590   2.057
  192SOL    HW1  575   1.202   5.554   2.123
  192SOL    HW2  576   1.260   5.542   1.970
  193SOL     OW  577   5.552   5.967   1.588
  193SOL    HW1  578   5.647   5.981   1.561
  193SOL    HW2  579   5.512   6.055   1.616
  194SOL     OW  580   3.093   6.047   2.488
  194SOL    HW1  581   3.082   6.146   2.484
  194SOL    HW2  582   3.013   6.002   2.448
  195SOL     OW  583   5.756   3.486   2.202
  195SOL    HW1  584   5.844   3.441   2.182
  195SOL    HW2  585   5.682   3.421   2.187
  196SOL     OW  586   5.599   5.952   2.346
  196SOL    HW1  587   5.679   5.912   2.392
  196SOL    HW2  588   5.523   5.888   2.351
  197SOL     OW  589   5.921   5.886   1.972
  197SOL    HW1  590   5.975   5.865   2.054
  197SOL    HW2  591   5.960   5.965   1.925
  198SOL     OW  592   2.363   5.692   1.487
  198SOL    HW1  593   2.304   5.773   1.481
  198SOL    HW2  594   2.451   5.712   1.444
  199SOL     OW  595   2.895   2.102   2.198
  199SOL    HW1  596   2.955   2.156   2.139
  199SOL    HW2  597   2.847   2.164   2.261
  200SOL     OW  598   2.976   4.660   4.557
  200SOL    HW1  599   3.049   4.592   4.555
  200SOL    HW2  600   3.015   4.751   4.564
  201SOL     OW  601   4.586   3.674   3.148
  201SOL    HW1  602   4.635   3.739   3.089
  201SOL    HW2  603   4.550   3.599   3.092
  202SOL     OW  604   5.701   5.799   1.361
  202SOL    HW1  605   5.751   5.877   1.397
  202SOL    HW2  606   5.651   5.826   1.278
  203SOL     OW  607   1.196   3.508   4.594
  203SOL    HW1  608   1.097   3.492   4.594
  203SOL    HW2  609   1.240   3.440   4.652
  204SOL     OW  610   5.576   3.527   1.746
  204SOL    HW1  611   5.533   3.436   1.743
  204SOL    HW2  612   5.667   3.522   1.705
  205SOL     OW  613   1.810   1.717   1.813
  205SOL    HW1  614   1.770   1.803   1.779
  205SOL    HW2  615   1.910   1.725   1.811
  206SOL     OW  616   4.148   4.734   4.365
  206SOL    HW1  617   4.104   4.644   4.367
  206SOL    HW2  618   4.247   4.722   4.362
  207SOL     OW  619   2.082   3.138   4.354
  207SOL    HW1  620   2.088   3.236   4.334
  207SOL    HW2  621   1.991   3.105   4.332
  208SOL     OW  622   0.825   2.249   3.873
  208SOL    HW1  623   0.725   2.254   3.868
  208SOL    HW2  624   0.857   2.170   3.821
  209SOL     OW  625   0.138   2.823   3.980
  209SOL    HW1  626   0.096   2.732   3.980
  209SOL    HW2  627   0.237   2.814   3.981
  210SOL     OW  628   2.724   0.337   1.516
  210SOL    HW1  629   2.677   0.251   1.495
  210SOL    HW2  630   2.789   0.322   1.591
  211SOL     OW  631   0.417   4.864   1.793
  211SOL    HW1  632   0.397   4.942   1.852
  211SOL    HW2  633   0.334   4.807   1.784
  212SOL     OW  634   1.784   4.654   0.802
  212SOL    HW1  635   1.799   4.656   0.901
  212SOL    HW2  636   1.864   4.691   0.755
  213SOL     OW  637   1.138   1.985   1.729
  213SOL    HW1  638   1.105   2.076   1.703
  213SOL    HW2  639   1.063   1.920   1.724
  214SOL     OW  640   0.234   0.636   1.902
  214SOL    HW1  641   0.307   0.573   1.875
  214SOL    HW2  642   0.176   0.656   1.823
  215SOL     OW  643   6.006   0.424   1.268
  215SOL    HW1  644   6.072   0.437   1.194
  215SOL    HW2  645   5.931   0.365   1.237
  216SOL     OW  646   4.372   5.786   0.078
  216SOL    HW1  647   4.370   5.878   0.115
  216SOL    HW2  648   4.439   5.731   0.127
  217SOL     OW  649   3.548   2.948   1.394
  217SOL    HW1  650   3.450   2.961   1.410
  217SOL    HW2  651   3.567   2.851   1.379
  218SOL     OW  652   3.221   4.763   2.626
  218SOL    HW1  653   3.214   4.862   2.639
  218SOL    HW2  654   3.146   4.718   2.674
  219SOL     OW  655   2.738   5.718   2.211
  219SOL    HW1  656   2.755   5.690   2.116
  219SOL    HW2  657   2.673   5.794   2.212
  220SOL     OW  658   3.579   5.149   4.449
  220SOL    HW1  659   3.621   5.229   4.491
  220SOL    HW2  660   3.505   5.179   4.387
  221SOL     OW  661   3.159   3.710   3.969
  221SOL    HW1  662   3.062   3.734   3.980
  221SOL    HW2  663   3.195   3.676   4.056
  222SOL     OW  664   4.610   4.957   0.269
  222SOL    HW1  665   4.583   5.030   0.205
  222SOL    HW2  666   4.533   4.937   0.330
  223SOL     OW  667   1.768   2.226   4.224
  223SOL    HW1  668   1.747   2.226   4.127
  223SOL    HW2  669   1.736   2.312   4.265
  224SOL     OW  670   1.491   5.898   2.553
  224SOL    HW1  671   1.531   5.865   2.467
  224SOL    HW2  672   1.491   5.824   2.620
  225SOL     OW  673   4.752   3.387   1.595
  225SOL    HW1  674   4.683   3.394   1.523
  225SOL    HW2  675   4.709   3.395   1.684
  226SOL     OW  676   0.241   4.599   1.590
  226SOL    HW1  677   0.203   4.521   1.541
  226SOL    HW2  678   0.188   4.681   1.569
  227SOL     OW  679   0.539   2.679   1.972
  227SOL    HW1  680   0.621   2.625   1.950
  227SOL    HW2  681   0.567   2.763   2.019
  228SOL     OW  682   0.320   1.044   4.913
  228SOL    HW1  683   0.226   1.008   4.914
  228SOL    HW2  684   0.318   1.143   4.919
  229SOL     OW  685   0.874   5.921   0.936
  229SOL    HW1  686   0.789   5.974   0.933
  229SOL    HW2  687   0.854   5.823   0.936
  230SOL     OW  688   4.576   5.184   0.729
  230SOL    HW1  689   4.672   5.156   0.736
  230SOL    HW2  690   4.519   5.102   0.724
  231SOL     OW  691   3.090   0.738   2.197
  231SOL    HW1  692   2.995   0.743   2.230
  231SOL    HW2  693   3.152   0.764   2.271
  232SOL     OW  694   5.319   4.922   3.390
  232SOL    HW1  695   5.344   4.966   3.477
  232SOL    HW2  696   5.370   4.836   3.381
  233SOL     OW  697   0.486   3.138   4.415
  233SOL    HW1  698   0.426   3.218   4.417
  233SOL    HW2  699   0.578   3.166   4.386
  234SOL     OW  700   2.813   4.238   3.841
  234SOL    HW1  701   2.850   4.331   3.848
  234SOL    HW2  702   2.713   4.241   3.841
  235SOL     OW  703   0.515   5.137   1.978
  235SOL    HW1  704   0.579   5.209   2.004
  235SOL    HW2  705   0.424   5.176   1.964
  236SOL     OW  706   2.994   0.077   4.668
  236SOL    HW1  707   2.897   0.061   4.686
  236SOL    HW2  708   3.048   0.002   4.704
  237SOL     OW  709   4.662   4.513   3.190
  237SOL    HW1  710   4.575   4.562   3.188
  237SOL    HW2  711   4.653   4.431   3.248
  238SOL     OW  712   3.272   2.248   4.001
  238SOL    HW1  713   3.190   2.296   3.970
  238SOL    HW2  714   3.288   2.168   3.943
  239SOL     OW  715   3.254   0.528   0.698
  239SOL    HW1  716   3.270   0.501   0.604
  239SOL    HW2  717   3.157   0.515   0.720
  240SOL     OW  718   5.230   5.161   0.828
  240SOL    HW1  719   5.309   5.130   0.776
  240SOL    HW2  720   5.166   5.085   0.840
  241SOL     OW  721   2.904   1.399   1.758
  241SOL    HW1  722   2.869   1.422   1.849
  241SOL    HW2  723   2.831   1.360   1.702
  242SOL     OW  724   3.877   3.497   3.501
  242SOL    HW1  725   3.934   3.575   3.529
  242SOL    HW2  726   3.850   3.509   3.405
  243SOL     OW  727   4.052   1.998   0.711
  243SOL    HW1  728   3.984   1.963   0.646
  243SOL    HW2  729   4.016   2.079   0.757
  244SOL     OW  730   6.307   3.268   4.090
  244SOL    HW1  731   6.254   3.333   4.037
  244SOL    HW2  732   6.310   3.180   4.043
  245SOL     OW  733   1.028   3.886   4.812
  245SOL    HW1  734   0.967   3.958   4.846
  245SOL    HW2  735   0.982   3.797   4.821
  246SOL     OW  736   4.529   3.579   2.257
  246SOL    HW1  737   4.432   3.599   2.242
  246SOL    HW2  738   4.541   3.480   2.265
  247SOL     OW  739   4.819   4.917   4.681
  247SOL    HW1  740   4.849   4.938   4.774
  247SOL    HW2  741   4.892   4.938   4.617
  248SOL     OW  742   5.501   1.385   4.447
  248SOL    HW1  743   5.601   1.393   4.445
  248SOL    HW2  744   5.472   1.316   4.381
  249SOL     OW  745   1.731   3.745   4.525
  249SOL    HW1  746   1.805   3.812   4.523
  249SOL    HW2  747   1.760   3.661   4.477
  250SOL     OW  748   4.759   2.056   0.892
  250SOL    HW1  749   4.742   2.152   0.870
  250SOL    HW2  750   4.741   2.041   0.990
  251SOL     OW  751   3.911   1.143   0.056
  251SOL    HW1  752   3.968   1.061   0.051
  251SOL    HW2  753   3.846   1.135   0.131
  252SOL     OW  754   2.678   3.667   3.376
  252SOL    HW1  755   2.672   3.690   3.473
  252SOL    HW2  756   2.694   3.750   3.323
  253SOL     OW  757   1.493   1.611   0.047
  253SOL    HW1  758   1.506   1.620   0.145
  253SOL    HW2  759   1.443   1.527   0.026
  254SOL     OW  760   2.350   5.418   1.443
  254SOL    HW1  761   2.337   5.320   1.428
  254SOL    HW2  762   2.260   5.464   1.442
  255SOL     OW  763   2.432   1.781   0.649
  255SOL    HW1  764   2.337   1.750   0.643
  255SOL    HW2  765   2.493   1.705   0.626
  256SOL     OW  766   1.902   1.921   3.979
  256SOL    HW1  767   1.999   1.895   3.974
  256SOL    HW2  768   1.847   1.843   4.007
  257SOL     OW  769   0.591   5.098   0.410
  257SOL    HW1  770   0.622   5.030   0.344
  257SOL    HW2  771   0.667   5.158   0.434
  258SOL     OW  772   3.150   2.736   4.478
  258SOL    HW1  773   3.127   2.662   4.542
  258SOL    HW2  774   3.093   2.816   4.497
  259SOL     OW  775   0.337   2.886   1.984
  259SOL    HW1  776   0.283   2.801   1.986
  259SOL    HW2  777   0.370   2.907   2.076
  260SOL     OW  778   4.880   0.517   2.805
  260SOL    HW1  779   4.865   0.595   2.744
  260SOL    HW2  780   4.912   0.438   2.752
  261SOL     OW  781   5.771   3.582   3.859
  261SOL    HW1  782   5.690   3.641   3.854
  261SOL    HW2  783   5.853   3.639   3.861
  262SOL     OW  784   4.443   4.853   0.523
  262SOL    HW1  785   4.395   4.940   0.516
  262SOL    HW2  786   4.395   4.794   0.589
  263SOL     OW  787   6.217   4.275   2.977
  263SOL    HW1  788   6.292   4.246   3.036
  263SOL    HW2  789   6.204   4.209   2.903
  264SOL     OW  790   0.428   0.135   2.946
  264SOL    HW1  791   0.338   0.129   2.991
  264SOL    HW2  792   0.467   0.043   2.939
  265SOL     OW  793   0.774   0.779   0.461
  265SOL    HW1  794   0.708   0.705   0.447
  265SOL    HW2  795   0.733   0.866   0.434
  266SOL     OW  796   4.418   4.997   1.698
  266SOL    HW1  797   4.385   4.911   1.659
  266SOL    HW2  798   4.352   5.070   1.678
  267SOL     OW  799   3.633   5.951   1.467
  267SOL    HW1  800   3.553   5.948   1.407
  267SOL    HW2  801   3.677   6.041   1.459
  268SOL     OW  802   1.691   4.858   1.016
  268SOL    HW1  803   1.669   4.879   1.112
  268SOL    HW2  804   1.789   4.863   1.002
  269SOL     OW  805   1.533   2.046   2.470
  269SOL    HW1  806   1.497   1.954   2.455
  269SOL    HW2  807   1.624   2.039   2.511
  270SOL     OW  808   0.918   2.591   4.773
  270SOL    HW1  809   0.901   2.614   4.869
  270SOL    HW2  810   0.839   2.542   4.736
  271SOL     OW  811   5.482   1.467   4.199
  271SOL    HW1  812   5.439   1.518   4.273
  271SOL    HW2  813   5.415   1.407   4.155
  272SOL     OW  814   2.267   0.500   0.853
  272SOL    HW1  815   2.175   0.461   0.851
  272SOL    HW2  816   2.288   0.542   0.765
  273SOL     OW  817   1.209   5.015   0.516
  273SOL    HW1  818   1.223   5.093   0.455
  273SOL    HW2  819   1.258   5.030   0.602
  274SOL     OW  820   3.433   4.538   3.353
  274SOL    HW1  821   3.505   4.551   3.285
  274SOL    HW2  822   3.349   4.508   3.307
  275SOL     OW  823   3.658   5.771   1.246
  275SOL    HW1  824   3.726   5.699   1.234
  275SOL    HW2  825   3.568   5.739   1.215
  276SOL     OW  826   3.337   4.167   0.390
  276SOL    HW1  827   3.330   4.213   0.479
  276SOL    HW2  828   3.245   4.146   0.356
  277SOL     OW  829   3.107   5.361   3.816
  277SOL    HW1  830   3.121   5.417   3.734
  277SOL    HW2  831   3.080   5.269   3.790
  278SOL     OW  832   2.586   6.339   2.162
  278SOL    HW1  833   2.684   6.326   2.147
  278SOL    HW2  834   2.544   6.252   2.184
  279SOL     OW  835   2.387   4.984   2.972
  279SOL    HW1  836   2.466   5.019   2.922
  279SOL    HW2  837   2.389   4.884   2.972
  280SOL     OW  838   5.594   4.387   2.470
  280SOL    HW1  839   5.670   4.445   2.440
  280SOL    HW2  840   5.630   4.300   2.503
  281SOL     OW  841   4.006   0.281   1.306
  281SOL    HW1  842   3.971   0.366   1.345
  281SOL    HW2  843   3.929   0.225   1.274
  282SOL     OW  844   4.952   0.807   0.281
  282SOL    HW1  845   4.981   0.724   0.234
  282SOL    HW2  846   4.854   0.800   0.303
  283SOL     OW  847   3.506   5.028   0.521
  283SOL    HW1  848   3.464   5.025   0.430
  283SOL    HW2  849   3.497   5.120   0.559
  284SOL     OW  850   1.603   4.662   2.338
  284SOL    HW1  851   1.616   4.759   2.358
  284SOL    HW2  852   1.507   4.645   2.314
  285SOL     OW  853   4.571   3.004   3.067
  285SOL    HW1  854   4.508   3.077   3.044
  285SOL    HW2  855   4.536   2.953   3.146
  286SOL     OW  856   5.778   3.255   1.582
  286SOL    HW1  857   5.716   3.332   1.569
  286SOL    HW2  858   5.728   3.179   1.624
  287SOL     OW  859   0.155   1.604   4.707
  287SOL    HW1  860   0.111   1.599   4.617
  287SOL    HW2  861   0.205   1.690   4.715
  288SOL     OW  862   6.095   3.847   0.799
  288SOL    HW1  863   6.141   3.930   0.767
  288SOL    HW2  864   6.001   3.868   0.826
  289SOL     OW  865   3.210   3.704   0.151
  289SOL    HW1  866   3.252   3.659   0.230
  289SOL    HW2  867   3.153   3.638   0.101
  290SOL     OW  868   4.477   5.336   4.854
  290SOL    HW1  869   4.402   5.299   4.909
  290SOL    HW2  870   4.508   5.422   4.894
  291SOL     OW  871   2.040   5.937   1.135
  291SOL    HW1  872   2.135   5.968   1.126
  291SOL    HW2  873   1.979   6.016   1.136
  292SOL     OW  874   1.394   3.789   0.876
  292SOL    HW1  875   1.394   3.845   0.794
  292SOL    HW2  876   1.300   3.782   0.912
  293SOL     OW  877   6.073   0.702   2.273
  293SOL    HW1  878   6.160   0.696   2.321
  293SOL    HW2  879   6.004   0.648   2.322
  294SOL     OW  880   1.202   3.485   0.590
  294SOL    HW1  881   1.282   3.540   0.609
  294SOL    HW2  882   1.156   3.460   0.675
  295SOL     OW  883   3.440   5.054   3.342
  295SOL    HW1  884   3.340   5.048   3.341
  295SOL    HW2  885   3.479   4.962   3.352
  296SOL     OW  886   0.529   3.778   4.696
  296SOL    HW1  887   0.581   3.862   4.710
  296SOL    HW2  888   0.441   3.799   4.653
  297SOL     OW  889   2.625   6.233   3.817
  297SOL    HW1  890   2.666   6.143   3.807
  297SOL    HW2  891   2.697   6.302   3.824
  298SOL     OW  892   5.738   6.103   3.299
  298SOL    HW1  893   5.837   6.094   3.293
  298SOL    HW2  894   5.713   6.200   3.294
  299SOL     OW  895   0.896   1.341   2.833
  299SOL    HW1  896   0.929   1.435   2.832
  299SOL    HW2  897   0.974   1.278   2.834
  300SOL     OW  898   5.951   2.516   2.280
  300SOL    HW1  899   5.875   2.457   2.307
  300SOL    HW2  900   5.986   2.487   2.191
  301SOL     OW  901   1.095   5.588   2.415
  301SOL    HW1  902   1.142   5.504   2.385
  301SOL    HW2  903   1.139   5.623   2.497
  302SOL     OW  904   3.701   0.283   2.548
  302SOL    HW1  905   3.614   0.257   2.505
  302SOL    HW2  906   3.708   0.239   2.637
  303SOL     OW  907   5.869   4.439   3.959
  303SOL    HW1  908   5.872   4.451   3.860
  303SOL    HW2  909   5.809   4.363   3.981
  304SOL     OW  910   2.266   1.633   1.024
  304SOL    HW1  911   2.197   1.578   0.975
  304SOL    HW2  912   2.334   1.571   1.064
  305SOL     OW  913   0.348   3.882   3.764
  305SOL    HW1  914   0.249   3.877   3.757
  305SOL    HW2  915   0.386   3.790   3.773
  306SOL     OW  916   4.867   1.508   4.550
  306SOL    HW1  917   4.775   1.516   4.511
  306SOL    HW2  918   4.894   1.412   4.551
  307SOL     OW  919   5.715   5.344   1.414
  307SOL    HW1  920   5.801   5.296   1.429
  307SOL    HW2  921   5.712   5.427   1.470
  308SOL     OW  922   1.443   5.625   4.444
  308SOL    HW1  923   1.530   5.579   4.425
  308SOL    HW2  924   1.374   5.597   4.378
  309SOL     OW  925   5.215   3.310   2.089
  309SOL    HW1  926   5.240   3.285   1.996
  309SOL    HW2  927   5.192   3.227   2.141
  310SOL     OW  928   2.106   6.131   2.786
  310SOL    HW1  929   2.072   6.037   2.777
  310SOL    HW2  930   2.032   6.195   2.770
  311SOL     OW  931   2.577   2.727   2.789
  311SOL    HW1  932   2.648   2.723   2.719
  311SOL    HW2  933   2.620   2.734   2.880
  312SOL     OW  934   1.790   5.385   2.671
  312SOL    HW1  935   1.720   5.400   2.741
  312SOL    HW2  936   1.794   5.464   2.610
  313SOL     OW  937   0.086   5.075   3.780
  313SOL    HW1  938   0.031   5.155   3.756
  313SOL    HW2  939   0.180   5.105   3.800
  314SOL     OW  940   4.725   5.364   4.135
  314SOL    HW1  941   4.788   5.322   4.070
  314SOL    HW2  942   4.701   5.456   4.104
  315SOL     OW  943   3.328   4.186   0.065
  315SOL    HW1  944   3.382   4.102   0.071
  315SOL    HW2  945   3.231   4.162   0.053
  316SOL     OW  946   5.879   1.341   0.271
  316SOL    HW1  947   5.826   1.317   0.352
  316SOL    HW2  948   5.955   1.277   0.260
  317SOL     OW  949   1.520   6.252   1.769
  317SOL    HW1  950   1.546   6.175   1.712
  317SOL    HW2  951   1.456   6.311   1.719
  318SOL     OW  952   4.646   3.763   2.543
  318SOL    HW1  953   4.662   3.734   2.449
  318SOL    HW2  954   4.675   3.857   2.555
  319SOL     OW  955   4.719   1.583   1.303
  319SOL    HW1  956   4.632   1.621   1.271
  319SOL    HW2  957   4.791   1.603   1.236
  320SOL     OW  958   5.727   3.272   3.834
  320SOL    HW1  959   5.723   3.292   3.736
  320SOL    HW2  960   5.664   3.333   3.883
  321SOL     OW  961   1.401   0.767   2.472
  321SOL    HW1  962   1.418   0.668   2.471
  321SOL    HW2  963   1.302   0.784   2.467
  322SOL     OW  964   4.618   5.735   4.780
  322SOL    HW1  965   4.528   5.735   4.737
  322SOL    HW2  966   4.621   5.665   4.852
  323SOL     OW  967   3.361   1.743   0.645
  323SOL    HW1  968   3.290   1.771   0.709
  323SOL    HW2  969   3.445   1.794   0.664
  324SOL     OW  970   0.407   3.047   0.452
  324SOL    HW1  971   0.405   3.121   0.384
  324SOL    HW2  972   0.314   3.012   0.465
  325SOL     OW  973   3.911   1.472   3.404
  325SOL    HW1  974   3.812   1.475   3.421
  325SOL    HW2  975   3.939   1.377   3.386
  326SOL     OW  976   2.888   3.100   1.262
  326SOL    HW1  977   2.963   3.056   1.311
  326SOL    HW2  978   2.886   3.197   1.284
  327SOL     OW  979   2.339   2.394   3.434
  327SOL    HW1  980   2.246   2.428   3.445
  327SOL    HW2  981   2.404   2.469   3.443
  328SOL     OW  982   1.657   3.330   2.035
  328SOL    HW1  983   1.607   3.371   2.112
  328SOL    HW2  984   1.700   3.244   2.065
  329SOL     OW  985   0.738   0.534   1.457
  329SOL    HW1  986   0.793   0.603   1.410
  329SOL    HW2  987   0.645   0.535   1.421
  330SOL     OW  988   3.781   0.785   3.583
  330SOL    HW1  989   3.691   0.775   3.625
  330SOL    HW2  990   3.818   0.876   3.602
  331SOL     OW  991   5.815   0.109   1.738
  331SOL    HW1  992   5.911   0.094   1.760
  331SOL    HW2  993   5.804   0.194   1.687
  332SOL     OW  994   0.727   4.352   1.696
  332SOL    HW1  995   0.780   4.362   1.780
  332SOL    HW2  996   0.758   4.272   1.645
  333SOL     OW  997   1.026   4.870   1.155
  333SOL    HW1  998   1.059   4.963   1.171
  333SOL    HW2  999   1.094   4.819   1.103
  334SOL     OW 1000   5.687   2.531   0.107
  334SOL    HW1 1001   5.626   2.504   0.181
  334SOL    HW2 1002   5.770   2.474   0.109
  335SOL     OW 1003   0.095   1.504   1.375
  335SOL    HW1 1004   0.045   1.445   1.312
  335SOL    HW2 1005   0.186   1.464   1.393
  336SOL     OW 1006   2.615   3.057   3.286
  336SOL    HW1 1007   2.601   3.134   3.223
  336SOL    HW2 1008   2.539   3.053   3.351
  337SOL     OW 1009   1.217   5.933   3.345
  337SOL    HW1 1010   1.306   5.891   3.365
  337SOL    HW2 1011   1.144   5.866   3.361
  338SOL     OW 1012   3.750   5.425   3.362
  338SOL    HW1 1013   3.755   5.360   3.438
  338SOL    HW2 1014   3.796   5.510   3.388
  339SOL     OW 1015   1.640   1.399   1.298
  339SOL    HW1 1016   1.546   1.412   1.267
  339SOL    HW2 1017   1.662   1.469   1.366
  340SOL     OW 1018   1.199   5.971   0.277
  340SOL    HW1 1019   1.161   5.956   0.186
  340SOL    HW2 1020   1.213   6.070   0.291
  341SOL     OW 1021   3.501   0.889   1.298
  341SOL    HW1 1022   3.592   0.913   1.266
  341SOL    HW2 1023   3.506   0.808   1.357
  342SOL     OW 1024   5.393   0.136   2.454
  342SOL    HW1 1025   5.450   0.179   2.524
  342SOL    HW2 1026   5.396   0.037   2.465
  343SOL     OW 1027   4.272   4.317   2.015
  343SOL    HW1 1028   4.289   4.243   1.949
  343SOL    HW2 1029   4.325   4.301   2.098
  344SOL     OW 1030   0.851   0.780   3.886
  344SOL    HW1 1031   0.824   0.791   3.981
  344SOL    HW2 1032   0.806   0.699   3.848
  345SOL     OW 1033   0.113   5.268   4.877
  345SOL    HW1 1034   0.185   5.201   4.856
  345SOL    HW2 1035   0.025   5.233   4.847
  346SOL     OW 1036   2.894   4.595   4.265
  346SOL    HW1 1037   2.869   4.618   4.171
  346SOL    HW2 1038   2.854   4.506   4.289
  347SOL     OW 1039   0.885   4.637   3.056
  347SOL    HW1 1040   0.795   4.674   3.083
  347SOL    HW2 1041   0.957   4.687   3.104
  348SOL     OW 1042   3.612   5.608   0.359
  348SOL    HW1 1043   3.640   5.650   0.273
  348SOL    HW2 1044   3.525   5.647   0.389
  349SOL     OW 1045   1.733   1.385   0.975
  349SOL    HW1 1046   1.656   1.435   1.014
  349SOL    HW2 1047   1.749   1.416   0.881
  350SOL     OW 1048   4.416   3.876   1.789
  350SOL    HW1 1049   4.473   3.935   1.732
  350SOL    HW2 1050   4.320   3.900   1.776
  351SOL     OW 1051   5.076   4.774   4.472
  351SOL    HW1 1052   4.980   4.802   4.462
  351SOL    HW2 1053   5.111   4.745   4.383
  352SOL     OW 1054   3.217   1.796   1.185
  352SOL    HW1 1055   3.166   1.718   1.149
  352SOL    HW2 1056   3.272   1.837   1.112
  353SOL     OW 1057   0.725   6.232   0.219
  353SOL    HW1 1058   0.656   6.262   0.285
  353SOL    HW2 1059   0.680   6.180   0.146
  354SOL     OW 1060   4.365   3.043   1.187
  354SOL    HW1 1061   4.388   2.967   1.247
  354SOL    HW2 1062   4.352   3.009   1.094
  355SOL     OW 1063   3.829   5.032   3.874
  355SOL    HW1 1064   3.908   5.014   3.815
  355SOL    HW2 1065   3.818   5.131   3.885
  356SOL     OW 1066   3.219   2.805   0.344
  356SOL    HW1 1067   3.246   2.720   0.299
  356SOL    HW2 1068   3.273   2.818   0.427
  357SOL     OW 1069   0.591   3.700   0.919
  357SOL    HW1 1070   0.576   3.636   0.845
  357SOL    HW2 1071   0.680   3.744   0.909
  358SOL     OW 1072   3.552   2.442   0.409
  358SOL    HW1 1073   3.531   2.344   0.410
  358SOL    HW2 1074   3.585   2.467   0.318
  359SOL     OW 1075   2.919   3.513   3.116
  359SOL    HW1 1076   2.907   3.603   3.158
  359SOL    HW2 1077   3.012   3.480   3.133
  360SOL     OW 1078   1.510   2.087   0.315
  360SOL    HW1 1079   1.457   2.170   0.297
  360SOL    HW2 1080   1.449   2.007   0.316
  361SOL     OW 1081   0.086   5.989   1.810
  361SOL    HW1 1082   0.068   6.087   1.797
  361SOL    HW2 1083   0.139   5.976   1.894
  362SOL     OW 1084   4.694   4.770   3.866
  362SOL    HW1 1085   4.642   4.794   3.947
  362SOL    HW2 1086   4.640   4.708   3.809
  363SOL     OW 1087   1.982   1.920   3.324
  363SOL    HW1 1088   1.987   2.011   3.366
  363SOL    HW2 1089   1.891   1.881   3.339
  364SOL     OW 1090   5.996   5.720   1.498
  364SOL    HW1 1091   6.033   5.712   1.406
  364SOL    HW2 1092   5.939   5.801   1.505
  365SOL     OW 1093   2.942   5.764   0.871
  365SOL    HW1 1094   2.891   5.848   0.891
  365SOL    HW2 1095   2.885   5.702   0.817
  366SOL     OW 1096   3.365   1.114   2.316
  366SOL    HW1 1097   3.454   1.160   2.309
  366SOL    HW2 1098   3.294   1.182   2.335
  367SOL     OW 1099   3.319   0.477   3.337
  367SOL    HW1 1100   3.305   0.561   3.388
  367SOL    HW2 1101   3.381   0.416   3.387
  368SOL     OW 1102   4.498   3.771   4.616
  368SOL    HW1 1103   4.433   3.767   4.541
  368SOL    HW2 1104   4.592   3.766   4.580
  369SOL     OW 1105   0.457   1.015   3.665
  369SOL    HW1 1106   0.533   0.965   3.625
  369SOL    HW2 1107   0.459   1.110   3.635
  370SOL     OW 1108   4.725   5.476   3.494
  370SOL    HW1 1109   4.629   5.449   3.494
  370SOL    HW2 1110   4.732   5.576   3.494
  371SOL     OW 1111   4.795   2.687   0.892
  371SOL    HW1 1112   4.695   2.694   0.887
  371SOL    HW2 1113   4.821   2.591   0.890
  372SOL     OW 1114   3.705   5.836   2.896
  372SOL    HW1 1115   3.777   5.877   2.952
  372SOL    HW2 1116   3.622   5.824   2.951
  373SOL     OW 1117   5.242   4.274   0.174
  373SOL    HW1 1118   5.148   4.243   0.160
  373SOL    HW2 1119   5.242   4.365   0.216
  374SOL     OW 1120   1.184   2.712   4.592
  374SOL    HW1 1121   1.085   2.719   4.604
  374SOL    HW2 1122   1.224   2.804   4.588
  375SOL     OW 1123   1.339   4.375   1.735
  375SOL    HW1 1124   1.275   4.298   1.734
  375SOL    HW2 1125   1.433   4.340   1.737
  376SOL     OW 1126   3.998   2.625   4.277
  376SOL    HW1 1127   4.095   2.628   4.301
  376SOL    HW2 1128   3.988   2.592   4.183
  377SOL     OW 1129   2.071   3.322   3.955
  377SOL    HW1 1130   2.090   3.415   3.987
  377SOL    HW2 1131   2.064   3.323   3.855
  378SOL     OW 1132   4.891   2.581   0.255
  378SOL    HW1 1133   4.795   2.605   0.244
  378SOL    HW2 1134   4.906   2.489   0.219
  379SOL     OW 1135   3.161   1.907   3.825
  379SOL    HW1 1136   3.244   1.961   3.809
  379SOL    HW2 1137   3.181   1.810   3.814
  380SOL     OW 1138   2.202   1.137   2.271
  380SOL    HW1 1139   2.260   1.165   2.194
  380SOL    HW2 1140   2.235   1.049   2.307
  381SOL     OW 1141   1.932   5.664   0.593
  381SOL    HW1 1142   2.012   5.640   0.648
  381SOL    HW2 1143   1.907   5.759   0.609
  382SOL     OW 1144   6.113   2.628   0.475
  382SOL    HW1 1145   6.212   2.628   0.465
  382SOL    HW2 1146   6.073   2.554   0.421
  383SOL     OW 1147   2.902   3.761   4.484
  383SOL    HW1 1148   2.998   3.735   4.490
  383SOL    HW2 1149   2.881   3.828   4.555
  384SOL     OW 1150   3.420   0.181   2.098
  384SOL    HW1 1151   3.376   0.242   2.031
  384SOL    HW2 1152   3.494   0.231   2.144
  385SOL     OW 1153   3.336   1.579   1.610
  385SOL    HW1 1154   3.294   1.492   1.585
  385SOL    HW2 1155   3.389   1.615   1.533
  386SOL     OW 1156   1.288   2.427   2.830
  386SOL    HW1 1157   1.355   2.500   2.848
  386SOL    HW2 1158   1.336   2.339   2.827
  387SOL     OW 1159   3.820   5.852   0.425
  387SOL    HW1 1160   3.730   5.831   0.464
  387SOL    HW2 1161   3.849   5.943   0.455
  388SOL     OW 1162   3.576   4.891   2.788
  388SOL    HW1 1163   3.508   4.851   2.726
  388SOL    HW2 1164   3.588   4.988   2.766
  389SOL     OW 1165   0.375   1.380   2.935
  389SOL    HW1 1166   0.361   1.317   3.012
  389SOL    HW2 1167   0.313   1.356   2.861
  390SOL     OW 1168   3.528   4.153   1.742
  390SOL    HW1 1169   3.614   4.205   1.747
  390SOL    HW2 1170   3.548   4.055   1.754
  391SOL     OW 1171   4.639   1.977   2.475
  391SOL    HW1 1172   4.597   2.012   2.559
  391SOL    HW2 1173   4.694   1.896   2.495
  392SOL     OW 1174   4.285   3.280   1.359
  392SOL    HW1 1175   4.354   3.345   1.328
  392SOL    HW2 1176   4.265   3.215   1.286
  393SOL     OW 1177   5.325   4.441   0.649
  393SOL    HW1 1178   5.231   4.462   0.675
  393SOL    HW2 1179   5.383   4.520   0.666
  394SOL     OW 1180   5.129   6.273   0.469
  394SOL    HW1 1181   5.151   6.322   0.553
  394SOL    HW2 1182   5.200   6.291   0.400
  395SOL     OW 1183   3.671   2.219   1.554
  395SOL    HW1 1184   3.584   2.261   1.530
  395SOL    HW2 1185   3.716   2.273   1.625
  396SOL     OW 1186   4.300   0.405   0.787
  396SOL    HW1 1187   4.358   0.348   0.728
  396SOL    HW2 1188   4.204   0.384   0.769
  397SOL     OW 1189   0.294   1.256   2.631
  397SOL    HW1 1190   0.197   1.257   2.655
  397SOL    HW2 1191   0.306   1.205   2.545
  398SOL     OW 1192   6.264   2.689   1.280
  398SOL    HW1 1193   6.305   2.765   1.230
  398SOL    HW2 1194   6.168   2.680   1.255
  399SOL     OW 1195   2.904   2.701   4.815
  399SOL    HW1 1196   2.809   2.669   4.814
  399SOL    HW2 1197   2.906   2.800   4.823
  400SOL     OW 1198   3.115   4.279   0.625
  400SOL    HW1 1199   3.027   4.321   0.602
  400SOL    HW2 1200   3.099   4.197   0.680
  401SOL     OW 1201   1.610   5.561   1.914
  401SOL    HW1 1202   1.674   5.633   1.887
  401SOL    HW2 1203   1.655   5.499   1.978
  402SOL     OW 1204   4.008   6.244   4.982
  402SOL    HW1 1205   3.962   6.332   4.993
  402SOL    HW2 1206   4.082   6.252   4.915
  403SOL     OW 1207   1.837   6.062   1.949
  403SOL    HW1 1208   1.841   5.963   1.936
  403SOL    HW2 1209   1.928   6.095   1.977
  404SOL     OW 1210   2.773   4.420   1.803
  404SOL    HW1 1211   2.724   4.383   1.882
  404SOL    HW2 1212   2.749   4.366   1.722
  405SOL     OW 1213   0.269   3.901   0.276
  405SOL    HW1 1214   0.274   3.812   0.320
  405SOL    HW2 1215   0.173   3.923   0.256
  406SOL     OW 1216   2.675   5.368   2.865
  406SOL    HW1 1217   2.734   5.448   2.876
  406SOL    HW2 1218   2.731   5.289   2.842
  407SOL     OW 1219   5.097   2.950   0.993
  407SOL    HW1 1220   5.106   2.922   1.088
  407SOL    HW2 1221   5.091   2.869   0.934
  408SOL     OW 1222   4.436   1.076   1.628
  408SOL    HW1 1223   4.363   1.131   1.667
  408SOL    HW2 1224   4.456   1.108   1.535
  409SOL     OW 1225   4.924   2.151   2.382
  409SOL    HW1 1226   4.873   2.237   2.380
  409SOL    HW2 1227   5.022   2.171   2.387
  410SOL     OW 1228   2.459   2.788   0.998
  410SOL    HW1 1229   2.424   2.801   1.091
  410SOL    HW2 1230   2.392   2.821   0.932
  411SOL     OW 1231   2.386   6.019   0.488
  411SOL    HW1 1232   2.343   6.090   0.432
  411SOL    HW2 1233   2.350   6.025   0.582
  412SOL     OW 1234   0.372   6.215   2.018
  412SOL    HW1 1235   0.449   6.243   1.961
  412SOL    HW2 1236   0.290   6.265   1.990
  413SOL     OW 1237   3.398   3.099   0.695
  413SOL    HW1 1238   3.493   3.113   0.667
  413SOL    HW2 1239   3.386   3.126   0.790
  414SOL     OW 1240   1.003   5.279   3.760
  414SOL    HW1 1241   0.962   5.188   3.760
  414SOL    HW2 1242   1.074   5.285   3.690
  415SOL     OW 1243   5.487   1.565   1.648
  415SOL    HW1 1244   5.451   1.495   1.586
  415SOL    HW2 1245   5.433   1.649   1.639
  416SOL     OW 1246   4.952   5.185   3.697
  416SOL    HW1 1247   4.926   5.201   3.602
  416SOL    HW2 1248   5.052   5.185   3.705
  417SOL     OW 1249   3.170   4.179   4.413
  417SOL    HW1 1250   3.117   4.098   4.440
  417SOL    HW2 1251   3.135   4.259   4.462
  418SOL     OW 1252   4.597   3.074   1.985
  418SOL    HW1 1253   4.581   3.047   2.080
  418SOL    HW2 1254   4.627   3.169   1.982
  419SOL     OW 1255   4.522   2.928   1.675
  419SOL    HW1 1256   4.617   2.923   1.705
  419SOL    HW2 1257   4.462   2.897   1.749
  420SOL     OW 1258   2.481   5.206   1.944
  420SOL    HW1 1259   2.415   5.190   2.017
  420SOL    HW2 1260   2.572   5.220   1.984
  421SOL     OW 1261   1.395   4.219   0.632
  421SOL    HW1 1262   1.435   4.307   0.607
  421SOL    HW2 1263   1.334   4.230   0.710
  422SOL     OW 1264   2.668   4.645   4.821
  422SOL    HW1 1265   2.606   4.724   4.826
  422SOL    HW2 1266   2.753   4.666   4.871
  423SOL     OW 1267   5.533   5.192   3.580
  423SOL    HW1 1268   5.467   5.156   3.515
  423SOL    HW2 1269   5.542   5.291   3.568
  424SOL     OW 1270   3.994   1.905   2.756
  424SOL    HW1 1271   3.922   1.972   2.737
  424SOL    HW2 1272   4.065   1.947   2.812
  425SOL     OW 1273   5.464   0.642   4.170
  425SOL    HW1 1274   5.535   0.594   4.221
  425SOL    HW2 1275   5.433   0.722   4.223
  426SOL     OW 1276   5.303   1.339   2.181
  426SOL    HW1 1277   5.368   1.263   2.182
  426SOL    HW2 1278   5.209   1.303   2.184
  427SOL     OW 1279  -0.000   4.621   0.238
  427SOL    HW1 1280   0.052   4.707   0.245
  427SOL    HW2 1281   0.044   4.561   0.172
  428SOL     OW 1282   2.066   2.543   3.568
  428SOL    HW1 1283   2.080   2.624   3.512
  428SOL    HW2 1284   2.148   2.526   3.624
  429SOL     OW 1285   3.487   2.725   4.196
  429SOL    HW1 1286   3.519   2.641   4.154
  429SOL    HW2 1287   3.565   2.784   4.216
  430SOL     OW 1288   5.232   1.579   0.763
  430SOL    HW1 1289   5.231   1.624   0.674
  430SOL    HW2 1290   5.233   1.480   0.751
  431SOL     OW 1291   2.722   1.559   2.455
  431SOL    HW1 1292   2.765   1.581   2.368
  431SOL    HW2 1293   2.747   1.466   2.482
  432SOL     OW 1294   2.366   3.925   1.773
  432SOL    HW1 1295   2.398   4.015   1.740
  432SOL    HW2 1296   2.291   3.893   1.714
  433SOL     OW 1297   6.016   2.756   2.034
  433SOL    HW1 1298   6.069   2.783   1.954
  433SOL    HW2 1299   6.061   2.679   2.079
  434SOL     OW 1300   1.563   0.184   4.012
  434SOL    HW1 1301   1.627   0.253   3.978
  434SOL    HW2 1302   1.549   0.114   3.942
  435SOL     OW 1303   5.029   0.299   2.919
  435SOL    HW1 1304   5.027   0.265   2.825
  435SOL    HW2 1305   5.117   0.277   2.961
  436SOL     OW 1306   0.510   0.921   2.815
  436SOL    HW1 1307   0.465   0.963   2.894
  436SOL    HW2 1308   0.584   0.861   2.846
  437SOL     OW 1309   1.399   4.141   4.125
  437SOL    HW1 1310   1.499   4.140   4.132
  437SOL    HW2 1311   1.365   4.048   4.115
  438SOL     OW 1312   0.780   4.727   2.018
  438SOL    HW1 1313   0.760   4.803   1.956
  438SOL    HW2 1314   0.879   4.713   2.022
  439SOL     OW 1315   1.368   4.529   3.805
  439SOL    HW1 1316   1.275   4.494   3.803
  439SOL    HW2 1317   1.429   4.466   3.757
  440SOL     OW 1318   3.880   2.805   3.523
  440SOL    HW1 1319   3.850   2.769   3.434
  440SOL    HW2 1320   3.869   2.904   3.524
  441SOL     OW 1321   4.551   3.497   2.503
  441SOL    HW1 1322   4.648   3.521   2.500
  441SOL    HW2 1323   4.527   3.467   2.596
  442SOL     OW 1324   2.807   1.382   0.665
  442SOL    HW1 1325   2.715   1.347   0.684
  442SOL    HW2 1326   2.872   1.305   0.663
  443SOL     OW 1327   2.822   6.211   4.110
  443SOL    HW1 1328   2.878   6.291   4.129
  443SOL    HW2 1329   2.831   6.145   4.185
  444SOL     OW 1330   1.437   3.401   2.395
  444SOL    HW1 1331   1.360   3.465   2.391
  444SOL    HW2 1332   1.523   3.451   2.376
  445SOL     OW 1333   1.121   5.210   2.914
  445SOL    HW1 1334   1.031   5.227   2.953
  445SOL    HW2 1335   1.187   5.273   2.955
  446SOL     OW 1336   0.966   1.175   1.422
  446SOL    HW1 1337   0.945   1.258   1.473
  446SOL    HW2 1338   0.886   1.146   1.370
  447SOL     OW 1339   3.782   3.665   1.733
  447SOL    HW1 1340   3.697   3.713   1.708
  447SOL    HW2 1341   3.849   3.678   1.660
  448SOL     OW 1342   5.274   1.184   1.942
  448SOL    HW1 1343   5.335   1.262   1.934
  448SOL    HW2 1344   5.186   1.214   1.978
  449SOL     OW 1345   4.118   2.580   0.166
  449SOL    HW1 1346   4.116   2.481   0.152
  449SOL    HW2 1347   4.026   2.617   0.150
  450SOL     OW 1348   3.025   5.926   1.707
  450SOL    HW1 1349   3.069   5.925   1.618
  450SOL    HW2 1350   2.928   5.950   1.697
  451SOL     OW 1351   3.330   0.406   4.534
  451SOL    HW1 1352   3.301   0.428   4.441
  451SOL    HW2 1353   3.303   0.312   4.556
  452SOL     OW 1354   2.208   3.692   0.992
  452SOL    HW1 1355   2.201   3.710   0.893
  452SOL    HW2 1356   2.211   3.593   1.007
  453SOL     OW 1357   2.678   0.933   3.658
  453SOL    HW1 1358   2.766   0.971   3.630
  453SOL    HW2 1359   2.664   0.845   3.611
  454SOL     OW 1360   1.445   0.570   0.160
  454SOL    HW1 1361   1.541   0.565   0.186
  454SOL    HW2 1362   1.391   0.607   0.236
  455SOL     OW 1363   0.691   6.205   0.836
  455SOL    HW1 1364   0.682   6.271   0.762
  455SOL    HW2 1365   0.788   6.182   0.848
  456SOL     OW 1366   3.760   2.901   2.596
  456SOL    HW1 1367   3.805   2.990   2.595
  456SOL    HW2 1368   3.670   2.910   2.639
  457SOL     OW 1369   3.941   3.395   1.849
  457SOL    HW1 1370   3.980   3.406   1.758
  457SOL    HW2 1371   3.859   3.339   1.843
  458SOL     OW 1372   5.181   6.049   3.716
  458SOL    HW1 1373   5.130   6.059   3.630
  458SOL    HW2 1374   5.127   6.085   3.792
  459SOL     OW 1375   0.075   0.285   4.841
  459SOL    HW1 1376   0.018   0.235   4.776
  459SOL    HW2 1377   0.024   0.364   4.876
  460SOL     OW 1378   4.107   0.271   0.116
  460SOL    HW1 1379   4.204   0.292   0.104
  460SOL    HW2 1380   4.087   0.257   0.213
  461SOL     OW 1381   2.322   4.243   3.665
  461SOL    HW1 1382   2.345   4.148   3.684
  461SOL    HW2 1383   2.406   4.296   3.652
  462SOL     OW 1384   3.690   3.010   3.967
  462SOL    HW1 1385   3.690   3.109   3.957
  462SOL    HW2 1386   3.762   2.971   3.909
  463SOL     OW 1387   5.690   5.312   4.016
  463SOL    HW1 1388   5.722   5.335   3.924
  463SOL    HW2 1389   5.680   5.396   4.069
  464SOL     OW 1390   4.728   1.921   4.199
  464SOL    HW1 1391   4.636   1.895   4.171
  464SOL    HW2 1392   4.746   2.016   4.171
  465SOL     OW 1393   1.386   2.472   1.284
  465SOL    HW1 1394   1.336   2.385   1.280
  465SOL    HW2 1395   1.321   2.548   1.278
  466SOL     OW 1396   5.016   0.475   2.551
  466SOL    HW1 1397   5.024   0.392   2.495
  466SOL    HW2 1398   4.945   0.534   2.513
  467SOL     OW 1399   5.039   4.101   3.401
  467SOL    HW1 1400   4.980   4.173   3.438
  467SOL    HW2 1401   5.019   4.014   3.447
  468SOL     OW 1402   6.256   2.872   2.283
  468SOL    HW1 1403   6.275   2.774   2.271
  468SOL    HW2 1404   6.161   2.884   2.311
  469SOL     OW 1405   6.055   5.697   0.561
  469SOL    HW1 1406   6.001   5.630   0.612
  469SOL    HW2 1407   5.995   5.771   0.529
  470SOL     OW 1408   1.074   6.147   2.269
  470SOL    HW1 1409   1.006   6.114   2.203
  470SOL    HW2 1410   1.053   6.242   2.293
  471SOL     OW 1411   1.408   0.942   4.895
  471SOL    HW1 1412   1.433   1.039   4.899
  471SOL    HW2 1413   1.490   0.886   4.885
  472SOL     OW 1414   4.395   0.500   1.349
  472SOL    HW1 1415   4.305   0.477   1.386
  472SOL    HW2 1416   4.449   0.417   1.337
  473SOL     OW 1417   4.665   2.702   0.093
  473SOL    HW1 1418   4.685   2.772   0.024
  473SOL    HW2 1419   4.573   2.716   0.128
  474SOL     OW 1420   5.495   4.612   3.029
  474SOL    HW1 1421   5.431   4.544   3.064
  474SOL    HW2 1422   5.445   4.684   2.980
  475SOL     OW 1423   4.118   4.292   0.312
  475SOL    HW1 1424   4.070   4.242   0.240
  475SOL    HW2 1425   4.054   4.350   0.361
  476SOL     OW 1426   2.461   4.268   2.203
  476SOL    HW1 1427   2.484   4.365   2.206
  476SOL    HW2 1428   2.370   4.257   2.162
  477SOL     OW 1429   5.707   4.815   0.033
  477SOL    HW1 1430   5.615   4.775   0.033
  477SOL    HW2 1431   5.775   4.741   0.034
  478SOL     OW 1432   3.639   0.496   1.486
  478SOL    HW1 1433   3.594   0.407   1.477
  478SOL    HW2 1434   3.575   0.569   1.461
  479SOL     OW 1435   2.674   0.052   4.671
  479SOL    HW1 1436   2.630   0.029   4.757
  479SOL    HW2 1437   2.609   0.100   4.611
  480SOL     OW 1438   1.573   1.992   3.364
  480SOL    HW1 1439   1.647   2.059   3.365
  480SOL    HW2 1440   1.485   2.040   3.366
  481SOL     OW 1441   0.329   6.092   4.867
  481SOL    HW1 1442   0.353   5.995   4.872
  481SOL    HW2 1443   0.401   6.141   4.818
  482SOL     OW 1444   4.451   0.239   2.481
  482SOL    HW1 1445   4.373   0.176   2.475
  482SOL    HW2 1446   4.420   0.332   2.461
  483SOL     OW 1447   2.680   4.700   4.119
  483SOL    HW1 1448   2.655   4.603   4.120
  483SOL    HW2 1449   2.616   4.751   4.176
  484SOL     OW 1450   3.312   2.112   3.413
  484SOL    HW1 1451   3.329   2.021   3.449
  484SOL    HW2 1452   3.321   2.179   3.487
  485SOL     OW 1453   2.000   5.351   0.119
  485SOL    HW1 1454   1.994   5.272   0.059
  485SOL    HW2 1455   2.052   5.328   0.201
  486SOL     OW 1456   1.151   0.061   3.586
  486SOL    HW1 1457   1.082   0.001   3.625
  486SOL    HW2 1458   1.240   0.015   3.586
  487SOL     OW 1459   0.170   5.609   2.726
  487SOL    HW1 1460   0.234   5.679   2.694
  487SOL    HW2 1461   0.219   5.524   2.745
  488SOL     OW 1462   0.315   0.672   1.062
  488SOL    HW1 1463   0.385   0.743   1.054
  488SOL    HW2 1464   0.233   0.701   1.013
  489SOL     OW 1465   2.758   3.299   3.519
  489SOL    HW1 1466   2.801   3.237   3.586
  489SOL    HW2 1467   2.813   3.382   3.511
  490SOL     OW 1468   3.031   0.764   2.793
  490SOL    HW1 1469   2.941   0.720   2.789
  490SOL    HW2 1470   3.098   0.698   2.829
  491SOL     OW 1471   5.598   2.128   0.261
  491SOL    HW1 1472   5.547   2.075   0.193
  491SOL    HW2 1473   5.609   2.222   0.227
  492SOL     OW 1474   3.826   2.503   3.790
  492SOL    HW1 1475   3.750   2.444   3.820
  492SOL    HW2 1476   3.898   2.446   3.751
  493SOL     OW 1477   3.067   4.369   3.200
  493SOL    HW1 1478   3.151   4.424   3.201
  493SOL    HW2 1479   3.090   4.272   3.210
  494SOL     OW 1480   0.664   0.707   2.242
  494SOL    HW1 1481   0.697   0.632   2.184
  494SOL    HW2 1482   0.572   0.687   2.274
  495SOL     OW 1483   5.260   4.420   3.503
  495SOL    HW1 1484   5.202   4.397   3.581
  495SOL    HW2 1485   5.207   4.473   3.437
  496SOL     OW 1486   0.460   0.343   0.524
  496SOL    HW1 1487   0.540   0.332   0.465
  496SOL    HW2 1488   0.440   0.256   0.570
  497SOL     OW 1489   2.057   2.562   0.360
  497SOL    HW1 1490   2.027   2.540   0.452
  497SOL    HW2 1491   2.128   2.632   0.364
  498SOL     OW 1492   0.062   4.027   3.905
  498SOL    HW1 1493   0.140   4.003   3.963
  498SOL    HW2 1494   0.069   4.124   3.879
  499SOL     OW 1495   4.814   4.522   2.763
  499SOL    HW1 1496   4.787   4.426   2.778
  499SOL    HW2 1497   4.788   4.549   2.670
  500SOL     OW 1498   5.970   1.404   2.347
  500SOL    HW1 1499   5.952   1.482   2.407
  500SOL    HW2 1500   6.057   1.362   2.370
  501SOL     OW 1501   1.751   2.533   4.714
  501SOL    HW1 1502   1.799   2.446   4.723
  501SOL    HW2 1503   1.817   2.608   4.722
  502SOL     OW 1504   2.253   2.250   4.427
  502SOL    HW1 1505   2.249   2.199   4.514
  502SOL    HW2 1506   2.237   2.187   4.351
  503SOL     OW 1507   5.247   5.661   0.502
  503SOL    HW1 1508   5.290   5.598   0.438
  503SOL    HW2 1509   5.250   5.623   0.595
  504SOL     OW 1510   3.282   0.855   2.970
  504SOL    HW1 1511   3.268   0.907   3.054
  504SOL    HW2 1512   3.306   0.761   2.993
  505SOL     OW 1513   0.410   5.878   4.327
  505SOL    HW1 1514   0.375   5.940   4.257
  505SOL    HW2 1515   0.422   5.927   4.413
  506SOL     OW 1516   1.852   0.394   4.805
  506SOL    HW1 1517   1.752   0.392   4.797
  506SOL    HW2 1518   1.885   0.487   4.792
  507SOL     OW 1519   4.481   5.332   1.650
  507SOL    HW1 1520   4.577   5.304   1.656
  507SOL    HW2 1521   4.476   5.429   1.625
  508SOL     OW 1522   0.134   5.598   3.890
  508SOL    HW1 1523   0.191   5.572   3.812
  508SOL    HW2 1524   0.192   5.640   3.961
  509SOL     OW 1525   2.458   4.230   1.809
  509SOL    HW1 1526   2.527   4.298   1.834
  509SOL    HW2 1527   2.443   4.233   1.710
  510SOL     OW 1528   5.096   4.561   2.604
  510SOL    HW1 1529   5.044   4.646   2.605
  510SOL    HW2 1530   5.041   4.487   2.643
  511SOL     OW 1531   5.767   1.478   4.290
  511SOL    HW1 1532   5.848   1.530   4.262
  511SOL    HW2 1533   5.727   1.433   4.210
  512SOL     OW 1534   4.867   5.476   3.934
  512SOL    HW1 1535   4.942   5.488   3.998
  512SOL    HW2 1536   4.819   5.563   3.922
  513SOL     OW 1537   1.188   2.711   2.414
  513SOL    HW1 1538   1.262   2.777   2.417
  513SOL    HW2 1539   1.225   2.619   2.397
  514SOL     OW 1540   0.491   4.898   3.966
  514SOL    HW1 1541   0.394   4.872   3.965
  514SOL    HW2 1542   0.527   4.896   3.873
  515SOL     OW 1543   5.774   5.170   4.262
  515SOL    HW1 1544   5.709   5.106   4.220
  515SOL    HW2 1545   5.864   5.160   4.219
  516SOL     OW 1546   5.062   2.437   2.129
  516SOL    HW1 1547   5.067   2.450   2.228
  516SOL    HW2 1548   5.144   2.388   2.099
  517SOL     OW 1549   5.641   0.029   1.258
  517SOL    HW1 1550   5.573   0.057   1.190
  517SOL    HW2 1551   5.632   0.086   1.340
  518SOL     OW 1552   1.975   3.000   0.611
  518SOL    HW1 1553   1.888   3.002   0.661
  518SOL    HW2 1554   2.021   3.089   0.621
  519SOL     OW 1555   5.310   0.646   0.250
  519SOL    HW1 1556   5.213   0.650   0.273
  519SOL    HW2 1557   5.336   0.728   0.198
  520SOL     OW 1558   3.372   0.754   1.007
  520SOL    HW1 1559   3.293   0.803   0.971
  520SOL    HW2 1560   3.415   0.701   0.933
  521SOL     OW 1561   4.102   5.793   3.826
  521SOL    HW1 1562   4.022   5.812   3.769
  521SOL    HW2 1563   4.161   5.873   3.829
  522SOL     OW 1564   4.496   1.129   3.357
  522SOL    HW1 1565   4.468   1.218   3.322
  522SOL    HW2 1566   4.592   1.112   3.332
  523SOL     OW 1567   4.220   0.136   0.861
  523SOL    HW1 1568   4.316   0.118   0.882
  523SOL    HW2 1569   4.162   0.090   0.928
  524SOL     OW 1570   0.032   0.245   1.151
  524SOL    HW1 1571   0.045   0.153   1.116
  524SOL    HW2 1572   0.120   0.283   1.180
  525SOL     OW 1573   0.634   1.218   2.902
  525SOL    HW1 1574   0.633   1.318   2.893
  525SOL    HW2 1575   0.541   1.186   2.917
  526SOL     OW 1576   4.714   6.105   1.203
  526SOL    HW1 1577   4.644   6.036   1.188
  526SOL    HW2 1578   4.789   6.091   1.139
  527SOL     OW 1579   1.300   1.496   3.096
  527SOL    HW1 1580   1.344   1.511   3.185
  527SOL    HW2 1581   1.264   1.583   3.061
  528SOL     OW 1582   4.848   4.922   3.638
  528SOL    HW1 1583   4.788   4.842   3.629
  528SOL    HW2 1584   4.936   4.893   3.676
  529SOL     OW 1585   4.137   0.945   4.443
  529SOL    HW1 1586   4.165   0.868   4.385
  529SOL    HW2 1587   4.038   0.942   4.456
  530SOL     OW 1588   2.512   4.516   3.883
  530SOL    HW1 1589   2.464   4.563   3.809
  530SOL    HW2 1590   2.595   4.567   3.907
  531SOL     OW 1591   3.563   5.268   3.717
  531SOL    HW1 1592   3.635   5.286   3.650
  531SOL    HW2 1593   3.593   5.199   3.782
  532SOL     OW 1594   3.850   0.240   1.622
  532SOL    HW1 1595   3.911   0.161   1.625
  532SOL    HW2 1596   3.879   0.307   1.691
  533SOL     OW 1597   2.184   5.120   4.766
  533SOL    HW1 1598   2.173   5.155   4.672
  533SOL    HW2 1599   2.262   5.166   4.809
  534SOL     OW 1600   3.806   2.714   2.734
  534SOL    HW1 1601   3.721   2.663   2.720
  534SOL    HW2 1602   3.870   2.694   2.659
  535SOL     OW 1603   1.730   3.513   0.758
  535SOL    HW1 1604   1.807   3.553   0.709
  535SOL    HW2 1605   1.680   3.451   0.697
  536SOL     OW 1606   2.325   5.212   2.423
  536SOL    HW1 1607   2.370   5.177   2.505
  536SOL    HW2 1608   2.390   5.213   2.347
  537SOL     OW 1609   6.027   4.916   4.845
  537SOL    HW1 1610   5.950   4.852   4.840
  537SOL    HW2 1611   6.112   4.868   4.826
  538SOL     OW 1612   5.327   0.700   3.656
  538SOL    HW1 1613   5.389   0.622   3.649
  538SOL    HW2 1614   5.246   0.674   3.709
  539SOL     OW 1615   2.674   0.718   2.396
  539SOL    HW1 1616   2.614   0.798   2.399
  539SOL    HW2 1617   2.767   0.747   2.373
  540SOL     OW 1618   5.847   5.565   3.568
  540SOL    HW1 1619   5.818   5.661   3.563
  540SOL    HW2 1620   5.894   5.540   3.484
  541SOL     OW 1621   0.871   1.870   1.889
  541SOL    HW1 1622   0.884   1.773   1.867
  541SOL    HW2 1623   0.774   1.891   1.889
  542SOL     OW 1624   2.884   0.695   0.795
  542SOL    HW1 1625   2.976   0.664   0.815
  542SOL    HW2 1626   2.851   0.650   0.711
  543SOL     OW 1627   1.621   3.823   1.998
  543SOL    HW1 1628   1.557   3.899   2.010
  543SOL    HW2 1629   1.571   3.737   2.006
  544SOL     OW 1630   5.018   2.706   3.029
  544SOL    HW1 1631   4.961   2.771   2.979
  544SOL    HW2 1632   5.103   2.690   2.978
  545SOL     OW 1633   1.016   5.532   3.070
  545SOL    HW1 1634   0.999   5.578   2.983
  545SOL    HW2 1635   0.928   5.510   3.114
  546SOL     OW 1636   3.020   3.452   0.417
  546SOL    HW1 1637   2.947   3.455   0.349
  546SOL    HW2 1638   2.981   3.455   0.509
  547SOL     OW 1639   1.505   4.905   1.789
  547SOL    HW1 1640   1.551   4.826   1.830
  547SOL    HW2 1641   1.423   4.875   1.741
  548SOL     OW 1642   2.955   0.252   2.642
  548SOL    HW1 1643   2.999   0.333   2.604
  548SOL    HW2 1644   2.864   0.276   2.675
  549SOL     OW 1645   5.475   5.694   0.361
  549SOL    HW1 1646   5.487   5.789   0.331
  549SOL    HW2 1647   5.564   5.653   0.379
  550SOL     OW 1648   1.798   3.281   1.470
  550SOL    HW1 1649   1.755   3.331   1.395
  550SOL    HW2 1650   1.816   3.187   1.441
  551SOL     OW 1651   5.273   6.217   2.575
  551SOL    HW1 1652   5.330   6.160   2.635
  551SOL    HW2 1653   5.268   6.175   2.484
  552SOL     OW 1654   2.414   3.845   0.304
  552SOL    HW1 1655   2.419   3.755   0.261
  552SOL    HW2 1656   2.329   3.853   0.355
  553SOL     OW 1657   5.129   1.475   0.496
  553SOL    HW1 1658   5.181   1.397   0.529
  553SOL    HW2 1659   5.192   1.549   0.470
  554SOL     OW 1660   3.997   2.100   4.381
  554SOL    HW1 1661   3.910   2.079   4.425
  554SOL    HW2 1662   4.058   2.021   4.387
  555SOL     OW 1663   5.433   1.427   1.352
  555SOL    HW1 1664   5.464   1.352   1.411
  555SOL    HW2 1665   5.339   1.451   1.374
  556SOL     OW 1666   3.579   5.103   4.765
  556SOL    HW1 1667   3.675   5.132   4.773
  556SOL    HW2 1668   3.574   5.004   4.755
  557SOL     OW 1669   3.895   3.351   1.108
  557SOL    HW1 1670   3.936   3.436   1.141
  557SOL    HW2 1671   3.801   3.344   1.143
  558SOL     OW 1672   3.294   1.743   0.331
  558SOL    HW1 1673   3.314   1.840   0.316
  558SOL    HW2 1674   3.197   1.726   0.312
  559SOL     OW 1675   0.546   5.194   0.998
  559SOL    HW1 1676   0.578   5.100   1.012
  559SOL    HW2 1677   0.617   5.258   1.029
  560SOL     OW 1678   0.793   5.766   0.210
  560SOL    HW1 1679   0.891   5.781   0.225
  560SOL    HW2 1680   0.775   5.668   0.199
  561SOL     OW 1681   1.359   3.847   2.368
  561SOL    HW1 1682   1.312   3.872   2.283
  561SOL    HW2 1683   1.455   3.875   2.362
  562SOL     OW 1684   3.248   4.490   2.729
  562SOL    HW1 1685   3.149   4.474   2.728
  562SOL    HW2 1686   3.296   4.402   2.722
  563SOL     OW 1687   3.423   4.843   1.491
  563SOL    HW1 1688   3.455   4.844   1.586
  563SOL    HW2 1689   3.502   4.848   1.429
  564SOL     OW 1690   5.720   0.238   1.012
  564SOL    HW1 1691   5.714   0.143   1.042
  564SOL    HW2 1692   5.628   0.275   0.999
  565SOL     OW 1693   1.656   4.025   0.994
  565SOL    HW1 1694   1.580   3.973   0.957
  565SOL    HW2 1695   1.625   4.078   1.073
  566SOL     OW 1696   2.535   2.590   2.095
  566SOL    HW1 1697   2.597   2.546   2.030
  566SOL    HW2 1698   2.451   2.615   2.047
  567SOL     OW 1699   5.895   3.872   2.196
  567SOL    HW1 1700   5.900   3.963   2.156
  567SOL    HW2 1701   5.800   3.842   2.201
  568SOL     OW 1702   2.740   3.577   0.382
  568SOL    HW1 1703   2.717   3.489   0.340
  568SOL    HW2 1704   2.793   3.561   0.466
  569SOL     OW 1705   3.697   1.933   0.744
  569SOL    HW1 1706   3.689   1.939   0.645
  569SOL    HW2 1707   3.778   1.879   0.767
  570SOL     OW 1708   0.306   5.959   3.395
  570SOL    HW1 1709   0.294   5.860   3.401
  570SOL    HW2 1710   0.222   6.005   3.425
  571SOL     OW 1711   5.935   5.505   4.922
  571SOL    HW1 1712   5.887   5.427   4.881
  571SOL    HW2 1713   6.034   5.488   4.920
  572SOL     OW 1714   1.842   6.110   1.694
  572SOL    HW1 1715   1.764   6.069   1.646
  572SOL    HW2 1716   1.818   6.202   1.725
  573SOL     OW 1717   0.465   4.732   1.327
  573SOL    HW1 1718   0.436   4.774   1.413
  573SOL    HW2 1719   0.547   4.677   1.343
  574SOL     OW 1720   6.309   5.219   3.149
  574SOL    HW1 1721   6.226   5.207   3.204
  574SOL    HW2 1722   6.298   5.297   3.088
  575SOL     OW 1723   3.047   4.314   2.503
  575SOL    HW1 1724   3.013   4.283   2.414
  575SOL    HW2 1725   3.133   4.363   2.491
  576SOL     OW 1726   0.915   1.474   1.145
  576SOL    HW1 1727   0.818   1.470   1.124
  576SOL    HW2 1728   0.941   1.568   1.167
  577SOL     OW 1729   1.008   4.033   2.204
  577SOL    HW1 1730   1.099   4.028   2.245
  577SOL    HW2 1731   0.985   4.128   2.184
  578SOL     OW 1732   3.475   0.637   4.406
  578SOL    HW1 1733   3.385   0.623   4.365
  578SOL    HW2 1734   3.536   0.564   4.379
  579SOL     OW 1735   5.179   5.324   0.554
  579SOL    HW1 1736   5.174   5.396   0.623
  579SOL    HW2 1737   5.271   5.321   0.516
  580SOL     OW 1738   2.955   4.408   4.912
  580SOL    HW1 1739   2.897   4.487   4.929
  580SOL    HW2 1740   3.045   4.438   4.880
  581SOL     OW 1741   0.628   4.176   0.306
  581SOL    HW1 1742   0.595   4.267   0.284
  581SOL    HW2 1743   0.553   4.122   0.345
  582SOL     OW 1744   2.715   4.744   0.102
  582SOL    HW1 1745   2.806   4.785   0.104
  582SOL    HW2 1746   2.722   4.645   0.112
  583SOL     OW 1747   4.154   0.890   1.234
  583SOL    HW1 1748   4.181   0.806   1.282
  583SOL    HW2 1749   4.220   0.962   1.253
  584SOL     OW 1750   3.491   4.247   0.227
  584SOL    HW1 1751   3.564   4.187   0.262
  584SOL    HW2 1752   3.510   4.341   0.253
  585SOL     OW 1753   0.466   2.626   4.925
  585SOL    HW1 1754   0.424   2.708   4.884
  585SOL    HW2 1755   0.522   2.579   4.858
  586SOL     OW 1756   2.419   3.179   4.594
  586SOL    HW1 1757   2.353   3.113   4.558
  586SOL    HW2 1758   2.509   3.136   4.600
  587SOL     OW 1759   0.251   4.212   2.057
  587SOL    HW1 1760   0.164   4.216   2.008
  587SOL    HW2 1761   0.233   4.197   2.155
  588SOL     OW 1762   1.331   2.609   4.728
  588SOL    HW1 1763   1.426   2.638   4.720
  588SOL    HW2 1764   1.327   2.514   4.758
  589SOL     OW 1765   0.893   6.062   1.898
  589SOL    HW1 1766   0.972   6.082   1.840
  589SOL    HW2 1767   0.907   5.975   1.945
  590SOL     OW 1768   1.842   5.513   3.758
  590SOL    HW1 1769   1.760   5.479   3.803
  590SOL    HW2 1770   1.860   5.460   3.676
  591SOL     OW 1771   5.493   1.587   3.088
  591SOL    HW1 1772   5.589   1.602   3.063
  591SOL    HW2 1773   5.441   1.671   3.074
  592SOL     OW 1774   2.913   0.373   1.994
  592SOL    HW1 1775   2.956   0.364   2.084
  592SOL    HW2 1776   2.862   0.290   1.973
  593SOL     OW 1777   3.227   2.500   3.571
  593SOL    HW1 1778   3.155   2.430   3.570
  593SOL    HW2 1779   3.316   2.455   3.581
  594SOL     OW 1780   4.967   3.548   0.733
  594SOL    HW1 1781   4.875   3.568   0.765
  594SOL    HW2 1782   4.973   3.452   0.706
  595SOL     OW 1783   0.183   3.783   3.487
  595SOL    HW1 1784   0.168   3.693   3.446
  595SOL    HW2 1785   0.108   3.844   3.461
  596SOL     OW 1786   5.363   3.803   2.961
  596SOL    HW1 1787   5.433   3.731   2.957
  596SOL    HW2 1788   5.273   3.761   2.978
  597SOL     OW 1789   0.608   1.478   3.595
  597SOL    HW1 1790   0.662   1.561   3.586
  597SOL    HW2 1791   0.669   1.401   3.615
  598SOL     OW 1792   0.590   2.970   4.166
  598SOL    HW1 1793   0.648   2.888   4.162
  598SOL    HW2 1794   0.495   2.945   4.149
  599SOL     OW 1795   5.539   4.170   3.101
  599SOL    HW1 1796   5.556   4.072   3.096
  599SOL    HW2 1797   5.510   4.203   3.011
  600SOL     OW 1798   0.434   1.647   2.246
  600SOL    HW1 1799   0.439   1.746   2.235
  600SOL    HW2 1800   0.348   1.623   2.291
  601SOL     OW 1801   2.164   1.622   2.001
  601SOL    HW1 1802   2.192   1.654   1.910
  601SOL    HW2 1803   2.168   1.698   2.066
  602SOL     OW 1804   5.768   4.298   4.778
  602SOL    HW1 1805   5.682   4.264   4.739
  602SOL    HW2 1806   5.834   4.223   4.782
  603SOL     OW 1807   2.657   3.941   4.922
  603SOL    HW1 1808   2.599   3.866   4.952
  603SOL    HW2 1809   2.744   3.904   4.887
  604SOL     OW 1810   2.437   3.807   3.025
  604SOL    HW1 1811   2.384   3.874   2.974
  604SOL    HW2 1812   2.533   3.812   2.998
  605SOL     OW 1813   4.026   0.075   4.393
  605SOL    HW1 1814   4.097   0.004   4.401
  605SOL    HW2 1815   3.936   0.032   4.391
  606SOL     OW 1816   3.340   1.652   2.133
  606SOL    HW1 1817   3.368   1.732   2.185
  606SOL    HW2 1818   3.250   1.668   2.092
  607SOL     OW 1819   3.395   3.884   2.376
  607SOL    HW1 1820   3.336   3.808   2.403
  607SOL    HW2 1821   3.443   3.920   2.456
  608SOL     OW 1822   3.702   0.252   1.938
  608SOL    HW1 1823   3.745   0.162   1.930
  608SOL    HW2 1824   3.603   0.241   1.944
  609SOL     OW 1825   4.971   5.857   3.764
  609SOL    HW1 1826   4.914   5.806   3.700
  609SOL    HW2 1827   4.971   5.812   3.853
  610SOL     OW 1828   2.386   1.548   4.137
  610SOL    HW1 1829   2.484   1.555   4.121
  610SOL    HW2 1830   2.357   1.452   4.128
  611SOL     OW 1831   2.838   4.663   1.700
  611SOL    HW1 1832   2.747   4.624   1.717
  611SOL    HW2 1833   2.853   4.741   1.760
  612SOL     OW 1834   3.495   1.796   1.455
  612SOL    HW1 1835   3.529   1.867   1.517
  612SOL    HW2 1836   3.567   1.769   1.391
  613SOL     OW 1837   1.787   5.262   3.748
  613SOL    HW1 1838   1.850   5.215   3.809
  613SOL    HW2 1839   1.717   5.198   3.716
  614SOL     OW 1840   5.062   1.250   3.266
  614SOL    HW1 1841   5.145   1.303   3.283
  614SOL    HW2 1842   4.982   1.305   3.293
  615SOL     OW 1843   6.077   4.296   4.900
  615SOL    HW1 1844   6.027   4.369   4.948
  615SOL    HW2 1845   6.027   4.210   4.911
  616SOL     OW 1846   6.294   3.274   4.960
  616SOL    HW1 1847   6.201   3.311   4.956
  616SOL    HW2 1848   6.291   3.174   4.963
  617SOL     OW 1849   5.368   4.449   4.235
  617SOL    HW1 1850   5.348   4.476   4.141
  617SOL    HW2 1851   5.297   4.387   4.268
  618SOL     OW 1852   1.953   5.095   4.842
  618SOL    HW1 1853   1.857   5.066   4.840
  618SOL    HW2 1854   1.957   5.195   4.844
  619SOL     OW 1855   0.184   0.014   1.307
  619SOL    HW1 1856   0.217   0.009   1.401
  619SOL    HW2 1857   0.085   0.002   1.306
  620SOL     OW 1858   5.944   4.551   0.742
  620SOL    HW1 1859   5.874   4.615   0.710
  620SOL    HW2 1860   6.034   4.590   0.726
  621SOL     OW 1861   4.157   0.668   4.606
  621SOL    HW1 1862   4.226   0.720   4.556
  621SOL    HW2 1863   4.068   0.678   4.562
  622SOL     OW 1864   5.437   5.535   1.477
  622SOL    HW1 1865   5.442   5.443   1.437
  622SOL    HW2 1866   5.496   5.597   1.425
  623SOL     OW 1867   1.718   4.930   3.711
  623SOL    HW1 1868   1.789   4.984   3.668
  623SOL    HW2 1869   1.693   4.970   3.799
  624SOL     OW 1870   4.056   1.548   2.901
  624SOL    HW1 1871   4.136   1.487   2.900
  624SOL    HW2 1872   3.972   1.493   2.899
  625SOL     OW 1873   0.878   0.461   0.520
  625SOL    HW1 1874   0.947   0.388   0.514
  625SOL    HW2 1875   0.791   0.429   0.483
  626SOL     OW 1876   3.915   4.614   4.615
  626SOL    HW1 1877   3.923   4.575   4.707
  626SOL    HW2 1878   3.830   4.666   4.608
  627SOL     OW 1879   5.534   2.362   0.853
  627SOL    HW1 1880   5.437   2.382   0.840
  627SOL    HW2 1881   5.587   2.447   0.839
  628SOL     OW 1882   6.091   2.476   3.758
  628SOL    HW1 1883   6.182   2.517   3.757
  628SOL    HW2 1884   6.091   2.396   3.818
  629SOL     OW 1885   1.953   0.203   3.486
  629SOL    HW1 1886   1.930   0.113   3.448
  629SOL    HW2 1887   2.052   0.210   3.497
  630SOL     OW 1888   2.250   2.948   4.320
  630SOL    HW1 1889   2.319   3.013   4.288
  630SOL    HW2 1890   2.236   2.961   4.418
  631SOL     OW 1891   5.932   3.627   0.740
  631SOL    HW1 1892   5.953   3.696   0.672
  631SOL    HW2 1893   6.012   3.569   0.755
  632SOL     OW 1894   1.004   2.942   0.231
  632SOL    HW1 1895   1.052   3.008   0.289
  632SOL    HW2 1896   1.011   2.972   0.136
  633SOL     OW 1897   3.262   2.380   0.467
  633SOL    HW1 1898   3.279   2.474   0.494
  633SOL    HW2 1899   3.245   2.324   0.549
  634SOL     OW 1900   3.082   3.925   0.474
  634SOL    HW1 1901   3.148   3.861   0.435
  634SOL    HW2 1902   3.030   3.880   0.546
  635SOL     OW 1903   3.461   2.558   4.957
  635SOL    HW1 1904   3.387   2.556   4.890
  635SOL    HW2 1905   3.502   2.467   4.964
  636SOL     OW 1906   5.316   0.750   0.678
  636SOL    HW1 1907   5.402   0.770   0.725
  636SOL    HW2 1908   5.302   0.651   0.677
  637SOL     OW 1909   5.011   4.105   3.918
  637SOL    HW1 1910   5.102   4.148   3.919
  637SOL    HW2 1911   4.982   4.092   3.823
  638SOL     OW 1912   5.648   3.374   4.528
  638SOL    HW1 1913   5.576   3.305   4.533
  638SOL    HW2 1914   5.610   3.458   4.487
  639SOL     OW 1915   6.087   1.148   4.915
  639SOL    HW1 1916   6.132   1.221   4.864
  639SOL    HW2 1917   6.003   1.183   4.955
  640SOL     OW 1918   0.255   5.341   4.272
  640SOL    HW1 1919   0.310   5.287   4.209
  640SOL    HW2 1920   0.267   5.438   4.252
  641SOL     OW 1921   2.349   4.920   0.764
  641SOL    HW1 1922   2.253   4.892   0.755
  641SOL    HW2 1923   2.354   5.020   0.764
  642SOL     OW 1924   6.165   1.728   1.288
  642SOL    HW1 1925   6.076   1.768   1.264
  642SOL    HW2 1926   6.155   1.673   1.372
  643SOL     OW 1927   1.140   1.212   3.074
  643SOL    HW1 1928   1.166   1.141   3.008
  643SOL    HW2 1929   1.048   1.246   3.051
  644SOL     OW 1930   4.668   0.836   1.638
  644SOL    HW1 1931   4.594   0.770   1.638
  644SOL    HW2 1932   4.754   0.790   1.661
  645SOL     OW 1933   1.714   4.682   1.783
  645SOL    HW1 1934   1.798   4.628   1.782
  645SOL    HW2 1935   1.635   4.622   1.790
  646SOL     OW 1936   2.038   2.835   2.112
  646SOL    HW1 1937   2.040   2.915   2.052
  646SOL    HW2 1938   1.944   2.805   2.125
  647SOL     OW 1939   4.672   4.994   1.570
  647SOL    HW1 1940   4.647   4.973   1.475
  647SOL    HW2 1941   4.664   4.911   1.625
  648SOL     OW 1942   4.538   0.735   1.240
  648SOL    HW1 1943   4.586   0.647   1.232
  648SOL    HW2 1944   4.440   0.719   1.245
  649SOL     OW 1945   3.724   2.055   4.728
  649SOL    HW1 1946   3.742   2.078   4.824
  649SOL    HW2 1947   3.626   2.042   4.715
  650SOL     OW 1948   6.183   1.786   3.804
  650SOL    HW1 1949   6.097   1.778   3.854
  650SOL    HW2 1950   6.259   1.762   3.865
  651SOL     OW 1951   1.184   3.773   3.058
  651SOL    HW1 1952   1.215   3.725   3.140
  651SOL    HW2 1953   1.262   3.794   3.000
  652SOL     OW 1954   0.527   1.528   4.012
  652SOL    HW1 1955   0.477   1.610   4.037
  652SOL    HW2 1956   0.554   1.479   4.095
  653SOL     OW 1957   2.266   3.037   3.671
  653SOL    HW1 1958   2.185   2.979   3.675
  653SOL    HW2 1959   2.348   2.980   3.670
  654SOL     OW 1960   3.666   1.675   1.702
  654SOL    HW1 1961   3.687   1.653   1.797
  654SOL    HW2 1962   3.617   1.762   1.697
  655SOL     OW 1963   4.180   5.447   0.909
  655SOL    HW1 1964   4.104   5.424   0.970
  655SOL    HW2 1965   4.145   5.489   0.826
  656SOL     OW 1966   0.594   3.603   1.189
  656SOL    HW1 1967   0.601   3.529   1.122
  656SOL    HW2 1968   0.674   3.601   1.250
  657SOL     OW 1969   5.920   3.411   2.689
  657SOL    HW1 1970   5.832   3.365   2.701
  657SOL    HW2 1971   5.983   3.350   2.639
  658SOL     OW 1972   2.336   0.886   2.025
  658SOL    HW1 1973   2.272   0.810   2.030
  658SOL    HW2 1974   2.430   0.851   2.022
  659SOL     OW 1975   5.809   5.475   0.054
  659SOL    HW1 1976   5.799   5.561   0.103
  659SOL    HW2 1977   5.758   5.403   0.101
  660SOL     OW 1978   5.508   2.212   0.558
  660SOL    HW1 1979   5.571   2.273   0.606
  660SOL    HW2 1980   5.533   2.207   0.461
  661SOL     OW 1981   5.692   6.055   0.804
  661SOL    HW1 1982   5.776   6.104   0.780
  661SOL    HW2 1983   5.709   5.957   0.807
  662SOL     OW 1984   3.792   3.960   4.124
  662SOL    HW1 1985   3.760   3.866   4.140
  662SOL    HW2 1986   3.873   3.958   4.065
  663SOL     OW 1987   2.036   4.089   1.622
  663SOL    HW1 1988   2.086   4.030   1.685
  663SOL    HW2 1989   1.949   4.046   1.598
  664SOL     OW 1990   1.843   4.169   2.227
  664SOL    HW1 1991   1.868   4.266   2.229
  664SOL    HW2 1992   1.744   4.160   2.233
  665SOL     OW 1993   3.898   1.032   0.452
  665SOL    HW1 1994   3.973   1.045   0.388
  665SOL    HW2 1995   3.907   0.942   0.496
  666SOL     OW 1996   5.801   2.268   1.094
  666SOL    HW1 1997   5.864   2.213   1.038
  666SOL    HW2 1998   5.852   2.338   1.143
  667SOL     OW 1999   5.873   3.257   0.019
  667SOL    HW1 2000   5.921   3.247   0.107
  667SOL    HW2 2001   5.774   3.256   0.035
  668SOL     OW 2002   3.692   3.428   2.687
  668SOL    HW1 2003   3.704   3.520   2.724
  668SOL    HW2 2004   3.781   3.391   2.659
  669SOL     OW 2005   1.658   3.766   1.613
  669SOL    HW1 2006   1.585   3.754   1.546
  669SOL    HW2 2007   1.735   3.706   1.591
  670SOL     OW 2008   5.601   0.363   4.050
  670SOL    HW1 2009   5.504   0.338   4.047
  670SOL    HW2 2010   5.656   0.283   4.025
  671SOL     OW 2011   1.005   3.821   2.830
  671SOL    HW1 2012   1.089   3.875   2.833
  671SOL    HW2 2013   1.023   3.728   2.862
  672SOL     OW 2014   3.287   2.845   2.907
  672SOL    HW1 2015   3.374   2.886   2.937
  672SOL    HW2 2016   3.218   2.917   2.896
  673SOL     OW 2017   4.729   4.211   0.098
  673SOL    HW1 2018   4.807   4.268   0.124
  673SOL    HW2 2019   4.759   4.116   0.091
  674SOL     OW 2020   3.599   1.927   1.195
  674SOL    HW1 2021   3.602   2.007   1.135
  674SOL    HW2 2022   3.512   1.927   1.245
  675SOL     OW 2023   4.141   3.761   2.730
  675SOL    HW1 2024   4.115   3.665   2.726
  675SOL    HW2 2025   4.241   3.769   2.727
  676SOL     OW 2026   1.903   3.542   1.854
  676SOL    HW1 2027   1.952   3.493   1.926
  676SOL    HW2 2028   1.819   3.493   1.832
  677SOL     OW 2029   3.471   6.129   1.298
  677SOL    HW1 2030   3.397   6.062   1.301
  677SOL    HW2 2031   3.433   6.221   1.297
  678SOL     OW 2032   3.924   0.832   1.437
  678SOL    HW1 2033   3.959   0.920   1.468
  678SOL    HW2 2034   3.967   0.758   1.490
  679SOL     OW 2035   3.058   1.143   4.699
  679SOL    HW1 2036   3.158   1.145   4.700
  679SOL    HW2 2037   3.023   1.234   4.722
  680SOL     OW 2038   0.837   3.387   4.657
  680SOL    HW1 2039   0.788   3.300   4.663
  680SOL    HW2 2040   0.785   3.458   4.703
  681SOL     OW 2041   1.134   1.335   0.972
  681SOL    HW1 2042   1.059   1.396   0.994
  681SOL    HW2 2043   1.221   1.377   0.998
  682SOL     OW 2044   2.545   2.909   4.684
  682SOL    HW1 2045   2.556   2.812   4.703
  682SOL    HW2 2046   2.613   2.937   4.616
  683SOL     OW 2047   3.726   3.464   4.468
  683SOL    HW1 2048   3.711   3.472   4.370
  683SOL    HW2 2049   3.769   3.547   4.503
  684SOL     OW 2050   4.659   1.620   2.358
  684SOL    HW1 2051   4.608   1.675   2.292
  684SOL    HW2 2052   4.757   1.631   2.343
  685SOL     OW 2053   4.607   4.899   1.152
  685SOL    HW1 2054   4.681   4.966   1.159
  685SOL    HW2 2055   4.519   4.946   1.149
  686SOL     OW 2056   4.848   1.103   0.577
  686SOL    HW1 2057   4.782   1.159   0.628
  686SOL    HW2 2058   4.939   1.113   0.618
  687SOL     OW 2059   1.473   5.584   4.955
  687SOL    HW1 2060   1.390   5.622   4.915
  687SOL    HW2 2061   1.548   5.590   4.889
  688SOL     OW 2062   3.812   4.277   3.446
  688SOL    HW1 2063   3.793   4.375   3.435
  688SOL    HW2 2064   3.851   4.241   3.362
  689SOL     OW 2065   4.126   1.589   2.636
  689SOL    HW1 2066   4.179   1.616   2.716
  689SOL    HW2 2067   4.031   1.574   2.663
  690SOL     OW 2068   1.554   0.495   3.288
  690SOL    HW1 2069   1.490   0.422   3.266
  690SOL    HW2 2070   1.648   0.460   3.286
  691SOL     OW 2071   4.411   2.017   1.890
  691SOL    HW1 2072   4.495   1.971   1.919
  691SOL    HW2 2073   4.435   2.094   1.830
  692SOL     OW 2074   2.386   3.717   1.482
  692SOL    HW1 2075   2.396   3.814   1.462
  692SOL    HW2 2076   2.347   3.706   1.574
  693SOL     OW 2077   2.988   4.784   0.576
  693SOL    HW1 2078   3.067   4.831   0.537
  693SOL    HW2 2079   2.904   4.821   0.535
  694SOL     OW 2080   4.626   1.262   4.213
  694SOL    HW1 2081   4.583   1.352   4.217
  694SOL    HW2 2082   4.555   1.191   4.216
  695SOL     OW 2083   2.746   2.048   2.733
  695SOL    HW1 2084   2.837   2.087   2.745
  695SOL    HW2 2085   2.741   1.960   2.780
  696SOL     OW 2086   3.238   6.237   1.401
  696SOL    HW1 2087   3.285   6.268   1.484
  696SOL    HW2 2088   3.145   6.209   1.424
  697SOL     OW 2089   3.751   1.334   3.184
  697SOL    HW1 2090   3.746   1.293   3.093
  697SOL    HW2 2091   3.820   1.407   3.184
  698SOL     OW 2092   3.875   4.607   2.343
  698SOL    HW1 2093   3.969   4.601   2.311
  698SOL    HW2 2094   3.849   4.703   2.352
  699SOL     OW 2095   3.986   4.671   0.325
  699SOL    HW1 2096   3.950   4.764   0.336
  699SOL    HW2 2097   3.910   4.606   0.327
  700SOL     OW 2098   3.826   1.898   0.061
  700SOL    HW1 2099   3.920   1.932   0.051
  700SOL    HW2 2100   3.763   1.975   0.062
  701SOL     OW 2101   2.854   1.014   2.829
  701SOL    HW1 2102   2.858   1.109   2.862
  701SOL    HW2 2103   2.862   0.951   2.907
  702SOL     OW 2104   5.435   2.463   3.313
  702SOL    HW1 2105   5.374   2.438   3.238
  702SOL    HW2 2106   5.499   2.389   3.331
  703SOL     OW 2107   4.076   5.498   3.675
  703SOL    HW1 2108   4.098   5.459   3.764
  703SOL    HW2 2109   4.155   5.547   3.639
  704SOL     OW 2110   6.208   6.029   2.047
  704SOL    HW1 2111   6.231   5.949   2.101
  704SOL    HW2 2112   6.221   6.112   2.102
  705SOL     OW 2113   2.493   1.472   3.663
  705SOL    HW1 2114   2.504   1.520   3.749
  705SOL    HW2 2115   2.429   1.396   3.675
  706SOL     OW 2116   1.600   0.589   4.979
  706SOL    HW1 2117   1.607   0.687   4.996
  706SOL    HW2 2118   1.683   0.556   4.935
  707SOL     OW 2119   1.266   4.127   3.110
  707SOL    HW1 2120   1.310   4.163   3.028
  707SOL    HW2 2121   1.334   4.080   3.167
  708SOL     OW 2122   0.637   0.218   2.750
  708SOL    HW1 2123   0.561   0.154   2.760
  708SOL    HW2 2124   0.723   0.168   2.742
  709SOL     OW 2125   3.732   5.885   4.107
  709SOL    HW1 2126   3.729   5.984   4.098
  709SOL    HW2 2127   3.641   5.851   4.132
  710SOL     OW 2128   4.221   6.081   2.684
  710SOL    HW1 2129   4.265   6.004   2.732
  710SOL    HW2 2130   4.282   6.160   2.685
  711SOL     OW 2131   3.055   5.891   0.123
  711SOL    HW1 2132   3.012   5.966   0.074
  711SOL    HW2 2133   3.008   5.805   0.102
  712SOL     OW 2134   6.174   0.267   0.398
  712SOL    HW1 2135   6.078   0.292   0.411
  712SOL    HW2 2136   6.197   0.190   0.457
  713SOL     OW 2137   2.582   0.686   2.163
  713SOL    HW1 2138   2.483   0.692   2.174
  713SOL    HW2 2139   2.615   0.767   2.114
  714SOL     OW 2140   2.227   2.462   1.985
  714SOL    HW1 2141   2.233   2.562   1.982
  714SOL    HW2 2142   2.319   2.423   1.984
  715SOL     OW 2143   4.558   0.561   3.316
  715SOL    HW1 2144   4.475   0.617   3.321
  715SOL    HW2 2145   4.535   0.466   3.339
  716SOL     OW 2146   3.918   5.038   3.167
  716SOL    HW1 2147   3.864   4.999   3.092
  716SOL    HW2 2148   3.993   4.976   3.190
  717SOL     OW 2149   2.897   2.448   0.066
  717SOL    HW1 2150   2.811   2.482   0.104
  717SOL    HW2 2151   2.970   2.515   0.084
  718SOL     OW 2152   3.337   3.399   0.984
  718SOL    HW1 2153   3.375   3.487   1.013
  718SOL    HW2 2154   3.237   3.404   0.982
  719SOL     OW 2155   1.351   6.220   4.305
  719SOL    HW1 2156   1.328   6.123   4.294
  719SOL    HW2 2157   1.268   6.275   4.290
  720SOL     OW 2158   4.522   1.666   0.474
  720SOL    HW1 2159   4.435   1.700   0.437
  720SOL    HW2 2160   4.509   1.637   0.569
  721SOL     OW 2161   2.441   4.822   2.761
  721SOL    HW1 2162   2.369   4.761   2.728
  721SOL    HW2 2163   2.530   4.774   2.758
  722SOL     OW 2164   4.055   0.419   4.803
  722SOL    HW1 2165   4.136   0.377   4.844
  722SOL    HW2 2166   3.996   0.454   4.876
  723SOL     OW 2167   2.767   0.139   1.273
  723SOL    HW1 2168   2.704   0.089   1.213
  723SOL    HW2 2169   2.842   0.078   1.299
  724SOL     OW 2170   0.248   0.891   0.423
  724SOL    HW1 2171   0.296   0.804   0.421
  724SOL    HW2 2172   0.149   0.876   0.426
  725SOL     OW 2173   1.919   1.750   0.161
  725SOL    HW1 2174   1.874   1.667   0.127
  725SOL    HW2 2175   1.890   1.829   0.106
  726SOL     OW 2176   3.719   5.391   1.901
  726SOL    HW1 2177   3.723   5.310   1.959
  726SOL    HW2 2178   3.810   5.412   1.865
  727SOL     OW 2179   4.450   3.322   3.228
  727SOL    HW1 2180   4.474   3.412   3.193
  727SOL    HW2 2181   4.354   3.303   3.209
  728SOL     OW 2182   5.969   2.790   4.005
  728SOL    HW1 2183   5.873   2.795   4.031
  728SOL    HW2 2184   5.976   2.780   3.905
  729SOL     OW 2185   2.707   1.612   3.851
  729SOL    HW1 2186   2.675   1.594   3.944
  729SOL    HW2 2187   2.803   1.639   3.852
  730SOL     OW 2188   2.032   3.022   2.881
  730SOL    HW1 2189   2.053   3.075   2.963
  730SOL    HW2 2190   2.063   2.928   2.894
  731SOL     OW 2191   0.872   3.816   0.110
  731SOL    HW1 2192   0.855   3.722   0.142
  731SOL    HW2 2193   0.803   3.841   0.042
  732SOL     OW 2194   5.169   4.283   2.620
  732SOL    HW1 2195   5.168   4.327   2.530
  732SOL    HW2 2196   5.104   4.207   2.621
  733SOL     OW 2197   0.332   5.353   3.249
  733SOL    HW1 2198   0.343   5.449   3.275
  733SOL    HW2 2199   0.235   5.331   3.243
  734SOL     OW 2200   3.127   3.536   1.236
  734SOL    HW1 2201   3.043   3.589   1.230
  734SOL    HW2 2202   3.106   3.440   1.252
  735SOL     OW 2203   1.646   2.383   3.785
  735SOL    HW1 2204   1.658   2.453   3.714
  735SOL    HW2 2205   1.733   2.336   3.801
  736SOL     OW 2206   2.202   4.900   4.444
  736SOL    HW1 2207   2.192   4.809   4.404
  736SOL    HW2 2208   2.221   4.892   4.542
  737SOL     OW 2209   5.027   1.794   3.751
  737SOL    HW1 2210   5.085   1.874   3.766
  737SOL    HW2 2211   4.945   1.822   3.700
  738SOL     OW 2212   4.608   0.433   2.875
  738SOL    HW1 2213   4.509   0.435   2.863
  738SOL    HW2 2214   4.631   0.445   2.971
  739SOL     OW 2215   1.210   3.713   2.744
  739SOL    HW1 2216   1.299   3.753   2.724
  739SOL    HW2 2217   1.163   3.691   2.658
  740SOL     OW 2218   2.540   2.431   1.819
  740SOL    HW1 2219   2.448   2.416   1.784
  740SOL    HW2 2220   2.607   2.404   1.750
  741SOL     OW 2221   5.735   2.939   2.871
  741SOL    HW1 2222   5.715   3.033   2.897
  741SOL    HW2 2223   5.793   2.939   2.789
  742SOL     OW 2224   4.150   2.568   4.751
  742SOL    HW1 2225   4.102   2.582   4.837
  742SOL    HW2 2226   4.174   2.656   4.710
  743SOL     OW 2227   5.155   5.016   0.193
  743SOL    HW1 2228   5.163   5.114   0.211
  743SOL    HW2 2229   5.230   4.968   0.239
  744SOL     OW 2230   5.366   1.036   1.694
  744SOL    HW1 2231   5.366   1.003   1.789
  744SOL    HW2 2232   5.317   1.123   1.689
  745SOL     OW 2233   6.186   5.465   1.109
  745SOL    HW1 2234   6.274   5.509   1.129
  745SOL    HW2 2235   6.198   5.366   1.111
  746SOL     OW 2236   1.283   5.286   0.201
  746SOL    HW1 2237   1.365   5.343   0.201
  746SOL    HW2 2238   1.309   5.190   0.200
  747SOL     OW 2239   0.642   1.630   1.415
  747SOL    HW1 2240   0.651   1.689   1.335
  747SOL    HW2 2241   0.681   1.540   1.396
  748SOL     OW 2242   4.362   5.605   3.195
  748SOL    HW1 2243   4.277   5.634   3.238
  748SOL    HW2 2244   4.342   5.551   3.113
  749SOL     OW 2245   4.124   1.504   1.817
  749SOL    HW1 2246   4.049   1.559   1.853
  749SOL    HW2 2247   4.208   1.558   1.815
  750SOL     OW 2248   1.438   0.533   2.176
  750SOL    HW1 2249   1.537   0.531   2.165
  750SOL    HW2 2250   1.395   0.517   2.087
  751SOL     OW 2251   4.529   4.443   3.453
  751SOL    HW1 2252   4.457   4.378   3.477
  751SOL    HW2 2253   4.508   4.532   3.493
  752SOL     OW 2254   0.124   0.446   0.989
  752SOL    HW1 2255   0.196   0.376   0.982
  752SOL    HW2 2256   0.035   0.402   0.984
  753SOL     OW 2257   1.876   3.796   3.353
  753SOL    HW1 2258   1.801   3.733   3.336
  753SOL    HW2 2259   1.843   3.890   3.346
  754SOL     OW 2260   4.949   4.481   1.410
  754SOL    HW1 2261   4.942   4.382   1.410
  754SOL    HW2 2262   5.041   4.508   1.382
  755SOL     OW 2263   2.627   2.852   3.851
  755SOL    HW1 2264   2.531   2.876   3.865
  755SOL    HW2 2265   2.672   2.925   3.799
  756SOL     OW 2266   4.660   1.074   2.194
  756SOL    HW1 2267   4.737   1.039   2.140
  756SOL    HW2 2268   4.661   1.174   2.191
  757SOL     OW 2269   5.261   1.921   4.760
  757SOL    HW1 2270   5.278   1.893   4.854
  757SOL    HW2 2271   5.246   1.840   4.703
  758SOL     OW 2272   4.828   3.075   3.649
  758SOL    HW1 2273   4.746   3.047   3.599
  758SOL    HW2 2274   4.865   3.159   3.609
  759SOL     OW 2275   5.704   5.646   3.227
  759SOL    HW1 2276   5.762   5.605   3.298
  759SOL    HW2 2277   5.609   5.647   3.259
  760SOL     OW 2278   0.844   2.733   1.352
  760SOL    HW1 2279   0.806   2.790   1.279
  760SOL    HW2 2280   0.835   2.637   1.327
  761SOL     OW 2281   3.356   3.753   1.808
  761SOL    HW1 2282   3.278   3.696   1.782
  761SOL    HW2 2283   3.398   3.791   1.726
  762SOL     OW 2284   2.525   2.511   3.064
  762SOL    HW1 2285   2.512   2.600   3.020
  762SOL    HW2 2286   2.532   2.440   2.993
  763SOL     OW 2287   0.481   4.246   1.422
  763SOL    HW1 2288   0.405   4.208   1.474
  763SOL    HW2 2289   0.484   4.203   1.332
  764SOL     OW 2290   5.893   4.120   4.130
  764SOL    HW1 2291   5.984   4.154   4.108
  764SOL    HW2 2292   5.829   4.196   4.137
  765SOL     OW 2293   3.042   5.106   3.471
  765SOL    HW1 2294   3.116   5.081   3.409
  765SOL    HW2 2295   3.021   5.029   3.531
  766SOL     OW 2296   5.448   1.856   4.440
  766SOL    HW1 2297   5.383   1.929   4.421
  766SOL    HW2 2298   5.539   1.883   4.407
  767SOL     OW 2299   4.873   3.802   4.109
  767SOL    HW1 2300   4.966   3.811   4.145
  767SOL    HW2 2301   4.831   3.892   4.102
  768SOL     OW 2302   4.902   1.379   3.557
  768SOL    HW1 2303   4.931   1.284   3.565
  768SOL    HW2 2304   4.924   1.428   3.642
  769SOL     OW 2305   2.085   0.738   0.404
  769SOL    HW1 2306   2.145   0.663   0.434
  769SOL    HW2 2307   2.000   0.699   0.368
  770SOL     OW 2308   1.305   4.939   4.414
  770SOL    HW1 2309   1.227   4.889   4.377
  770SOL    HW2 2310   1.375   4.951   4.343
  771SOL     OW 2311   5.538   4.511   4.723
  771SOL    HW1 2312   5.515   4.608   4.726
  771SOL    HW2 2313   5.459   4.457   4.754
  772SOL     OW 2314   2.944   1.298   3.785
  772SOL    HW1 2315   3.037   1.267   3.766
  772SOL    HW2 2316   2.930   1.302   3.884
  773SOL     OW 2317   1.687   6.067   3.807
  773SOL    HW1 2318   1.594   6.044   3.779
  773SOL    HW2 2319   1.751   5.998   3.772
  774SOL     OW 2320   3.456   4.912   0.786
  774SOL    HW1 2321   3.381   4.846   0.782
  774SOL    HW2 2322   3.478   4.932   0.882
  775SOL     OW 2323   3.529   6.016   2.626
  775SOL    HW1 2324   3.440   6.017   2.580
  775SOL    HW2 2325   3.520   5.968   2.714
  776SOL     OW 2326   1.409   2.388   4.248
  776SOL    HW1 2327   1.415   2.413   4.152
  776SOL    HW2 2328   1.417   2.289   4.257
  777SOL     OW 2329   5.275   1.184   4.898
  777SOL    HW1 2330   5.265   1.234   4.984
  777SOL    HW2 2331   5.245   1.090   4.909
  778SOL     OW 2332   3.236   1.376   2.556
  778SOL    HW1 2333   3.147   1.331   2.547
  778SOL    HW2 2334   3.295   1.323   2.616
  779SOL     OW 2335   0.322   5.800   1.995
  779SOL    HW1 2336   0.290   5.712   1.961
  779SOL    HW2 2337   0.376   5.847   1.924
  780SOL     OW 2338   2.116   3.863   4.405
  780SOL    HW1 2339   2.033   3.917   4.422
  780SOL    HW2 2340   2.091   3.768   4.386
  781SOL     OW 2341   0.429   6.127   0.213
  781SOL    HW1 2342   0.451   6.132   0.115
  781SOL    HW2 2343   0.404   6.034   0.237
  782SOL     OW 2344   0.073   6.014   2.484
  782SOL    HW1 2345   0.073   6.077   2.562
  782SOL    HW2 2346   0.154   6.032   2.428
  783SOL     OW 2347   1.648   4.180   1.798
  783SOL    HW1 2348   1.721   4.175   1.730
  783SOL    HW2 2349   1.635   4.275   1.827
  784SOL     OW 2350   2.163   2.446   0.120
  784SOL    HW1 2351   2.198   2.418   0.031
  784SOL    HW2 2352   2.182   2.374   0.187
  785SOL     OW 2353   1.748   0.557   3.469
  785SOL    HW1 2354   1.804   0.619   3.414
  785SOL    HW2 2355   1.672   0.608   3.510
  786SOL     OW 2356   0.885   2.529   2.728
  786SOL    HW1 2357   0.822   2.603   2.752
  786SOL    HW2 2358   0.836   2.441   2.732
  787SOL     OW 2359   4.196   5.570   4.762
  787SOL    HW1 2360   4.284   5.562   4.715
  787SOL    HW2 2361   4.143   5.487   4.746
  788SOL     OW 2362   3.476   4.601   4.007
  788SOL    HW1 2363   3.526   4.665   4.065
  788SOL    HW2 2364   3.489   4.508   4.041
  789SOL     OW 2365   1.957   3.129   2.373
  789SOL    HW1 2366   2.042   3.136   2.320
  789SOL    HW2 2367   1.950   3.208   2.435
  790SOL     OW 2368   5.684   4.332   4.403
  790SOL    HW1 2369   5.689   4.424   4.443
  790SOL    HW2 2370   5.589   4.311   4.382
  791SOL     OW 2371   4.557   2.777   4.293
  791SOL    HW1 2372   4.657   2.777   4.290
  791SOL    HW2 2373   4.524   2.684   4.314
  792SOL     OW 2374   5.552   1.379   3.919
  792SOL    HW1 2375   5.645   1.369   3.954
  792SOL    HW2 2376   5.505   1.291   3.925
  793SOL     OW 2377   5.750   1.690   4.062
  793SOL    HW1 2378   5.690   1.745   4.120
  793SOL    HW2 2379   5.696   1.622   4.012
  794SOL     OW 2380   2.870   2.559   0.983
  794SOL    HW1 2381   2.924   2.501   0.922
  794SOL    HW2 2382   2.776   2.564   0.950
  795SOL     OW 2383   1.807   4.592   1.512
  795SOL    HW1 2384   1.722   4.622   1.468
  795SOL    HW2 2385   1.875   4.665   1.505
  796SOL     OW 2386   1.130   2.216   4.396
  796SOL    HW1 2387   1.052   2.191   4.453
  796SOL    HW2 2388   1.099   2.236   4.303
  797SOL     OW 2389   4.144   0.650   2.409
  797SOL    HW1 2390   4.176   0.684   2.320
  797SOL    HW2 2391   4.044   0.645   2.408
  798SOL     OW 2392   2.146   2.174   3.918
  798SOL    HW1 2393   2.056   2.154   3.955
  798SOL    HW2 2394   2.209   2.100   3.944
  799SOL     OW 2395   1.190   2.016   2.982
  799SOL    HW1 2396   1.171   2.095   2.922
  799SOL    HW2 2397   1.258   1.957   2.938
  800SOL     OW 2398   2.726   0.382   2.252
  800SOL    HW1 2399   2.665   0.391   2.330
  800SOL    HW2 2400   2.671   0.375   2.168
  801SOL     OW 2401   2.347   3.770   4.650
  801SOL    HW1 2402   2.408   3.846   4.672
  801SOL    HW2 2403   2.381   3.723   4.568
  802SOL     OW 2404   4.350   5.906   1.127
  802SOL    HW1 2405   4.270   5.932   1.074
  802SOL    HW2 2406   4.322   5.853   1.208
  803SOL     OW 2407   2.804   1.394   4.551
  803SOL    HW1 2408   2.734   1.461   4.573
  803SOL    HW2 2409   2.876   1.438   4.497
  804SOL     OW 2410   0.529   0.921   3.944
  804SOL    HW1 2411   0.598   0.849   3.958
  804SOL    HW2 2412   0.438   0.880   3.940
  805SOL     OW 2413   1.890   5.726   1.397
  805SOL    HW1 2414   1.838   5.701   1.316
  805SOL    HW2 2415   1.845   5.802   1.444
  806SOL     OW 2416   5.757   1.299   1.733
  806SOL    HW1 2417   5.675   1.340   1.773
  806SOL    HW2 2418   5.838   1.340   1.774
  807SOL     OW 2419   0.864   3.921   0.994
  807SOL    HW1 2420   0.946   3.978   1.002
  807SOL    HW2 2421   0.892   3.827   0.974
  808SOL     OW 2422   5.796   2.744   0.262
  808SOL    HW1 2423   5.741   2.750   0.179
  808SOL    HW2 2424   5.827   2.836   0.288
  809SOL     OW 2425   0.799   4.451   2.390
  809SOL    HW1 2426   0.827   4.544   2.414
  809SOL    HW2 2427   0.875   4.388   2.407
  810SOL     OW 2428   5.052   5.403   0.247
  810SOL    HW1 2429   5.139   5.436   0.284
  810SOL    HW2 2430   5.065   5.311   0.210
  811SOL     OW 2431   6.064   2.454   0.156
  811SOL    HW1 2432   6.090   2.440   0.061
  811SOL    HW2 2433   6.135   2.417   0.216
  812SOL     OW 2434   3.958   1.804   0.889
  812SOL    HW1 2435   4.046   1.757   0.897
  812SOL    HW2 2436   3.972   1.903   0.900
  813SOL     OW 2437   2.559   6.163   2.464
  813SOL    HW1 2438   2.593   6.083   2.416
  813SOL    HW2 2439   2.635   6.211   2.508
  814SOL     OW 2440   2.031   5.001   3.005
  814SOL    HW1 2441   1.945   5.052   2.998
  814SOL    HW2 2442   2.093   5.030   2.932
  815SOL     OW 2443   1.443   0.066   2.533
  815SOL    HW1 2444   1.529   0.083   2.485
  815SOL    HW2 2445   1.459   0.002   2.608
  816SOL     OW 2446   2.450   1.834   3.360
  816SOL    HW1 2447   2.468   1.778   3.441
  816SOL    HW2 2448   2.494   1.923   3.370
  817SOL     OW 2449   4.322   5.404   3.410
  817SOL    HW1 2450   4.419   5.428   3.417
  817SOL    HW2 2451   4.310   5.307   3.432
  818SOL     OW 2452   4.498   2.016   3.323
  818SOL    HW1 2453   4.445   1.972   3.251
  818SOL    HW2 2454   4.542   2.098   3.287
  819SOL     OW 2455   4.695   0.174   3.816
  819SOL    HW1 2456   4.606   0.216   3.829
  819SOL    HW2 2457   4.694   0.117   3.733
  820SOL     OW 2458   0.445   4.093   2.558
  820SOL    HW1 2459   0.516   4.150   2.599
  820SOL    HW2 2460   0.361   4.101   2.611
  821SOL     OW 2461   2.886   1.403   0.266
  821SOL    HW1 2462   2.911   1.500   0.261
  821SOL    HW2 2463   2.892   1.362   0.176
  822SOL     OW 2464   2.225   4.283   0.862
  822SOL    HW1 2465   2.297   4.321   0.920
  822SOL    HW2 2466   2.261   4.269   0.769
  823SOL     OW 2467   4.272   1.504   2.212
  823SOL    HW1 2468   4.302   1.567   2.141
  823SOL    HW2 2469   4.316   1.529   2.299
  824SOL     OW 2470   1.413   2.932   3.187
  824SOL    HW1 2471   1.407   3.023   3.229
  824SOL    HW2 2472   1.346   2.926   3.113
  825SOL     OW 2473   0.112   0.141   1.964
  825SOL    HW1 2474   0.110   0.106   2.058
  825SOL    HW2 2475   0.020   0.137   1.925
  826SOL     OW 2476   4.235   2.586   2.024
  826SOL    HW1 2477   4.161   2.610   1.961
  826SOL    HW2 2478   4.253   2.488   2.020
  827SOL     OW 2479   5.252   5.503   2.587
  827SOL    HW1 2480   5.236   5.462   2.498
  827SOL    HW2 2481   5.311   5.583   2.576
  828SOL     OW 2482   3.896   5.373   4.358
  828SOL    HW1 2483   3.821   5.314   4.327
  828SOL    HW2 2484   3.976   5.316   4.380
  829SOL     OW 2485   2.137   4.447   2.734
  829SOL    HW1 2486   2.052   4.398   2.719
  829SOL    HW2 2487   2.152   4.512   2.660
  830SOL     OW 2488   5.962   5.184   0.538
  830SOL    HW1 2489   5.934   5.253   0.470
  830SOL    HW2 2490   6.054   5.152   0.516
  831SOL     OW 2491   3.575   2.718   2.455
  831SOL    HW1 2492   3.476   2.723   2.446
  831SOL    HW2 2493   3.599   2.658   2.532
  832SOL     OW 2494   3.367   3.609   1.300
  832SOL    HW1 2495   3.373   3.709   1.294
  832SOL    HW2 2496   3.459   3.571   1.314
  833SOL     OW 2497   5.367   3.935   2.261
  833SOL    HW1 2498   5.331   4.028   2.271
  833SOL    HW2 2499   5.466   3.939   2.251
  834SOL     OW 2500   2.885   2.385   3.023
  834SOL    HW1 2501   2.878   2.381   3.122
  834SOL    HW2 2502   2.981   2.384   2.996
  835SOL     OW 2503   5.707   5.001   2.610
  835SOL    HW1 2504   5.728   4.940   2.687
  835SOL    HW2 2505   5.766   4.979   2.532
  836SOL     OW 2506   2.875   3.305   3.846
  836SOL    HW1 2507   2.831   3.241   3.910
  836SOL    HW2 2508   2.903   3.387   3.895
  837SOL     OW 2509   3.020   0.717   2.547
  837SOL    HW1 2510   3.100   0.747   2.495
  837SOL    HW2 2511   2.972   0.796   2.583
  838SOL     OW 2512   0.215   4.615   0.427
  838SOL    HW1 2513   0.255   4.523   0.430
  838SOL    HW2 2514   0.289   4.683   0.427
  839SOL     OW 2515   5.789   4.108   1.877
  839SOL    HW1 2516   5.767   4.176   1.947
  839SOL    HW2 2517   5.720   4.036   1.876
  840SOL     OW 2518   0.500   1.294   1.664
  840SOL    HW1 2519   0.457   1.368   1.717
  840SOL    HW2 2520   0.572   1.333   1.606
  841SOL     OW 2521   3.815   4.356   2.040
  841SOL    HW1 2522   3.849   4.263   2.025
  841SOL    HW2 2523   3.892   4.419   2.047
  842SOL     OW 2524   1.309   0.493   2.826
  842SOL    HW1 2525   1.356   0.409   2.796
  842SOL    HW2 2526   1.223   0.468   2.870
  843SOL     OW 2527   4.360   1.098   1.006
  843SOL    HW1 2528   4.427   1.168   1.029
  843SOL    HW2 2529   4.400   1.007   1.020
  844SOL     OW 2530   6.201   0.786   1.308
  844SOL    HW1 2531   6.237   0.802   1.217
  844SOL    HW2 2532   6.101   0.795   1.307
  845SOL     OW 2533   1.632   4.322   3.129
  845SOL    HW1 2534   1.667   4.366   3.047
  845SOL    HW2 2535   1.694   4.339   3.206
  846SOL     OW 2536   0.937   1.481   2.403
  846SOL    HW1 2537   1.022   1.442   2.368
  846SOL    HW2 2538   0.952   1.519   2.495
  847SOL     OW 2539   4.464   2.919   3.674
  847SOL    HW1 2540   4.524   2.903   3.752
  847SOL    HW2 2541   4.399   2.991   3.696
  848SOL     OW 2542   3.553   2.734   0.837
  848SOL    HW1 2543   3.647   2.702   0.822
  848SOL    HW2 2544   3.549   2.833   0.825
  849SOL     OW 2545   4.951   5.848   4.245
  849SOL    HW1 2546   4.876   5.909   4.219
  849SOL    HW2 2547   5.038   5.893   4.228
  850SOL     OW 2548   3.177   2.986   2.645
  850SOL    HW1 2549   3.208   2.959   2.554
  850SOL    HW2 2550   3.104   3.054   2.637
  851SOL     OW 2551   6.098   3.772   4.181
  851SOL    HW1 2552   6.179   3.714   4.176
  851SOL    HW2 2553   6.125   3.868   4.168
  852SOL     OW 2554   1.818   1.217   4.055
  852SOL    HW1 2555   1.909   1.256   4.052
  852SOL    HW2 2556   1.805   1.166   4.140
  853SOL     OW 2557   3.422   3.079   1.666
  853SOL    HW1 2558   3.405   3.023   1.747
  853SOL    HW2 2559   3.507   3.050   1.623
  854SOL     OW 2560   5.417   3.493   4.922
  854SOL    HW1 2561   5.475   3.533   4.851
  854SOL    HW2 2562   5.453   3.405   4.950
  855SOL     OW 2563   3.872   1.815   4.917
  855SOL    HW1 2564   3.870   1.904   4.871
  855SOL    HW2 2565   3.966   1.792   4.939
  856SOL     OW 2566   1.311   0.299   0.885
  856SOL    HW1 2567   1.219   0.315   0.922
  856SOL    HW2 2568   1.316   0.336   0.792
  857SOL     OW 2569   5.832   0.930   4.686
  857SOL    HW1 2570   5.864   0.865   4.756
  857SOL    HW2 2571   5.846   0.891   4.595
  858SOL     OW 2572   3.423   2.026   0.959
  858SOL    HW1 2573   3.346   2.076   0.921
  858SOL    HW2 2574   3.504   2.042   0.903
  859SOL     OW 2575   1.774   3.189   3.883
  859SOL    HW1 2576   1.772   3.222   3.977
  859SOL    HW2 2577   1.766   3.089   3.882
  860SOL     OW 2578   5.268   5.023   1.492
  860SOL    HW1 2579   5.219   4.973   1.421
  860SOL    HW2 2580   5.232   5.116   1.498
  861SOL     OW 2581   0.580   1.356   2.540
  861SOL    HW1 2582   0.608   1.261   2.525
  861SOL    HW2 2583   0.586   1.378   2.637
  862SOL     OW 2584   1.883   3.796   2.914
  862SOL    HW1 2585   1.824   3.742   2.974
  862SOL    HW2 2586   1.844   3.887   2.902
  863SOL     OW 2587   2.748   4.467   2.497
  863SOL    HW1 2588   2.790   4.381   2.528
  863SOL    HW2 2589   2.685   4.448   2.422
  864SOL     OW 2590   5.576   2.861   4.312
  864SOL    HW1 2591   5.485   2.901   4.299
  864SOL    HW2 2592   5.645   2.934   4.314
  865SOL     OW 2593   1.537   2.255   3.970
  865SOL    HW1 2594   1.559   2.351   3.986
  865SOL    HW2 2595   1.440   2.246   3.948
  866SOL     OW 2596   0.909   0.256   2.434
  866SOL    HW1 2597   0.816   0.227   2.411
  866SOL    HW2 2598   0.922   0.351   2.404
  867SOL     OW 2599   1.143   1.197   4.865
  867SOL    HW1 2600   1.215   1.143   4.908
  867SOL    HW2 2601   1.181   1.281   4.828
  868SOL     OW 2602   3.341   4.662   3.842
  868SOL    HW1 2603   3.332   4.761   3.842
  868SOL    HW2 2604   3.250   4.620   3.850
  869SOL     OW 2605   3.398   5.121   4.048
  869SOL    HW1 2606   3.492   5.131   4.015
  869SOL    HW2 2607   3.391   5.159   4.140
  870SOL     OW 2608   1.782   5.264   0.535
  870SOL    HW1 2609   1.830   5.272   0.447
  870SOL    HW2 2610   1.696   5.214   0.521
  871SOL     OW 2611   6.286   0.534   0.329
  871SOL    HW1 2612   6.246   0.515   0.419
  871SOL    HW2 2613   6.298   0.633   0.318
  872SOL     OW 2614   2.931   0.419   4.621
  872SOL    HW1 2615   2.923   0.395   4.524
  872SOL    HW2 2616   2.893   0.345   4.677
  873SOL     OW 2617   0.854   4.021   4.494
  873SOL    HW1 2618   0.852   3.922   4.510
  873SOL    HW2 2619   0.775   4.064   4.536
  874SOL     OW 2620   3.983   2.533   2.982
  874SOL    HW1 2621   3.943   2.527   3.073
  874SOL    HW2 2622   4.074   2.575   2.989
  875SOL     OW 2623   1.034   2.299   0.291
  875SOL    HW1 2624   1.120   2.299   0.241
  875SOL    HW2 2625   0.989   2.388   0.280
  876SOL     OW 2626   1.807   1.725   4.600
  876SOL    HW1 2627   1.707   1.719   4.593
  876SOL    HW2 2628   1.847   1.637   4.573
  877SOL     OW 2629   0.439   3.022   1.648
  877SOL    HW1 2630   0.497   3.104   1.649
  877SOL    HW2 2631   0.343   3.049   1.649
  878SOL     OW 2632   5.412   4.555   2.297
  878SOL    HW1 2633   5.385   4.650   2.287
  878SOL    HW2 2634   5.468   4.528   2.218
  879SOL     OW 2635   3.657   0.909   3.014
  879SOL    HW1 2636   3.626   0.995   2.972
  879SOL    HW2 2637   3.670   0.923   3.112
  880SOL     OW 2638   2.913   4.213   3.597
  880SOL    HW1 2639   2.983   4.208   3.669
  880SOL    HW2 2640   2.861   4.298   3.606
  881SOL     OW 2641   0.603   2.750   4.444
  881SOL    HW1 2642   0.522   2.804   4.470
  881SOL    HW2 2643   0.677   2.812   4.419
  882SOL     OW 2644   3.473   5.142   1.389
  882SOL    HW1 2645   3.561   5.181   1.416
  882SOL    HW2 2646   3.488   5.073   1.319
  883SOL     OW 2647   2.292   3.601   4.196
  883SOL    HW1 2648   2.261   3.552   4.115
  883SOL    HW2 2649   2.226   3.674   4.218
  884SOL     OW 2650   4.266   3.112   2.519
  884SOL    HW1 2651   4.345   3.171   2.507
  884SOL    HW2 2652   4.293   3.016   2.512
  885SOL     OW 2653   2.727   2.341   3.327
  885SOL    HW1 2654   2.765   2.248   3.326
  885SOL    HW2 2655   2.798   2.405   3.355
  886SOL     OW 2656   4.127   0.951   4.750
  886SOL    HW1 2657   4.187   0.896   4.807
  886SOL    HW2 2658   4.034   0.913   4.754
  887SOL     OW 2659   4.695   4.725   2.354
  887SOL    HW1 2660   4.780   4.777   2.342
  887SOL    HW2 2661   4.617   4.787   2.358
  888SOL     OW 2662   3.133   0.208   3.037
  888SOL    HW1 2663   3.075   0.128   3.023
  888SOL    HW2 2664   3.226   0.178   3.059
  889SOL     OW 2665   2.064   5.470   3.162
  889SOL    HW1 2666   2.054   5.397   3.094
  889SOL    HW2 2667   2.153   5.461   3.207
  890SOL     OW 2668   5.806   3.775   4.030
  890SOL    HW1 2669   5.717   3.812   4.059
  890SOL    HW2 2670   5.866   3.850   4.003
  891SOL     OW 2671   0.380   4.509   1.740
  891SOL    HW1 2672   0.441   4.432   1.757
  891SOL    HW2 2673   0.430   4.595   1.752
  892SOL     OW 2674   0.304   5.097   0.147
  892SOL    HW1 2675   0.272   5.065   0.236
  892SOL    HW2 2676   0.405   5.098   0.147
  893SOL     OW 2677   2.773   5.597   0.657
  893SOL    HW1 2678   2.681   5.558   0.668
  893SOL    HW2 2679   2.774   5.659   0.579
  894SOL     OW 2680   4.653   6.162   1.530
  894SOL    HW1 2681   4.553   6.153   1.526
  894SOL    HW2 2682   4.678   6.223   1.605
  895SOL     OW 2683   1.016   2.890   2.571
  895SOL    HW1 2684   1.005   2.925   2.664
  895SOL    HW2 2685   0.941   2.827   2.551
  896SOL     OW 2686   2.236   4.992   2.573
  896SOL    HW1 2687   2.305   4.974   2.643
  896SOL    HW2 2688   2.256   4.936   2.492
  897SOL     OW 2689   5.471   0.341   0.275
  897SOL    HW1 2690   5.488   0.423   0.330
  897SOL    HW2 2691   5.379   0.307   0.293
  898SOL     OW 2692   0.451   1.274   2.333
  898SOL    HW1 2693   0.517   1.324   2.277
  898SOL    HW2 2694   0.380   1.337   2.365
  899SOL     OW 2695   4.896   3.974   1.046
  899SOL    HW1 2696   4.798   3.956   1.056
  899SOL    HW2 2697   4.941   3.894   1.007
  900SOL     OW 2698   5.918   4.848   0.481
  900SOL    HW1 2699   5.996   4.855   0.420
  900SOL    HW2 2700   5.835   4.874   0.433
  901SOL     OW 2701   4.299   1.138   3.103
  901SOL    HW1 2702   4.276   1.140   3.200
  901SOL    HW2 2703   4.222   1.101   3.051
  902SOL     OW 2704   0.963   0.333   3.342
  902SOL    HW1 2705   0.982   0.234   3.341
  902SOL    HW2 2706   1.028   0.380   3.282
  903SOL     OW 2707   2.306   2.414   1.595
  903SOL    HW1 2708   2.299   2.314   1.586
  903SOL    HW2 2709   2.339   2.453   1.510
  904SOL     OW 2710   2.776   5.603   3.990
  904SOL    HW1 2711   2.688   5.559   4.008
  904SOL    HW2 2712   2.845   5.532   3.975
  905SOL     OW 2713   5.503   5.285   1.845
  905SOL    HW1 2714   5.597   5.267   1.874
  905SOL    HW2 2715   5.482   5.232   1.763
  906SOL     OW 2716   3.486   3.172   1.089
  906SOL    HW1 2717   3.537   3.257   1.101
  906SOL    HW2 2718   3.549   3.094   1.089
  907SOL     OW 2719   1.705   4.568   0.235
  907SOL    HW1 2720   1.740   4.577   0.142
  907SOL    HW2 2721   1.693   4.471   0.257
  908SOL     OW 2722   3.894   1.472   4.261
  908SOL    HW1 2723   3.878   1.570   4.248
  908SOL    HW2 2724   3.984   1.448   4.225
  909SOL     OW 2725   1.045   2.478   0.719
  909SOL    HW1 2726   0.981   2.527   0.779
  909SOL    HW2 2727   1.037   2.514   0.626
  910SOL     OW 2728   3.415   2.215   4.795
  910SOL    HW1 2729   3.501   2.260   4.771
  910SOL    HW2 2730   3.420   2.182   4.889
  911SOL     OW 2731   2.945   3.045   2.411
  911SOL    HW1 2732   2.978   3.135   2.441
  911SOL    HW2 2733   2.980   2.974   2.473
  912SOL     OW 2734   5.882   1.373   4.667
  912SOL    HW1 2735   5.784   1.372   4.647
  912SOL    HW2 2736   5.916   1.468   4.666
  913SOL     OW 2737   3.364   3.404   4.772
  913SOL    HW1 2738   3.427   3.478   4.746
  913SOL    HW2 2739   3.414   3.318   4.775
  914SOL     OW 2740   1.523   4.184   2.169
  914SOL    HW1 2741   1.446   4.240   2.137
  914SOL    HW2 2742   1.529   4.101   2.114
  915SOL     OW 2743   2.441   0.278   4.356
  915SOL    HW1 2744   2.411   0.284   4.261
  915SOL    HW2 2745   2.504   0.201   4.366
  916SOL     OW 2746   4.089   2.862   4.517
  916SOL    HW1 2747   4.100   2.773   4.473
  916SOL    HW2 2748   4.178   2.893   4.551
  917SOL     OW 2749   5.223   1.494   1.853
  917SOL    HW1 2750   5.130   1.471   1.825
  917SOL    HW2 2751   5.238   1.463   1.947
  918SOL     OW 2752   2.600   3.534   0.868
  918SOL    HW1 2753   2.700   3.537   0.868
  918SOL    HW2 2754   2.563   3.627   0.863
  919SOL     OW 2755   0.624   4.522   1.481
  919SOL    HW1 2756   0.677   4.523   1.566
  919SOL    HW2 2757   0.565   4.441   1.480
  920SOL     OW 2758   6.107   1.231   0.461
  920SOL    HW1 2759   6.180   1.295   0.437
  920SOL    HW2 2760   6.131   1.139   0.432
  921SOL     OW 2761   5.848   1.588   1.163
  921SOL    HW1 2762   5.929   1.645   1.146
  921SOL    HW2 2763   5.818   1.548   1.076
  922SOL     OW 2764   6.196   1.715   4.614
  922SOL    HW1 2765   6.110   1.765   4.617
  922SOL    HW2 2766   6.273   1.780   4.620
  923SOL     OW 2767   2.347   5.374   3.903
  923SOL    HW1 2768   2.370   5.318   3.823
  923SOL    HW2 2769   2.429   5.418   3.937
  924SOL     OW 2770   2.290   5.456   2.586
  924SOL    HW1 2771   2.371   5.513   2.572
  924SOL    HW2 2772   2.257   5.467   2.680
  925SOL     OW 2773   1.154   4.801   1.506
  925SOL    HW1 2774   1.069   4.837   1.545
  925SOL    HW2 2775   1.221   4.875   1.497
  926SOL     OW 2776   5.921   5.516   3.878
  926SOL    HW1 2777   5.910   5.513   3.779
  926SOL    HW2 2778   5.835   5.543   3.922
  927SOL     OW 2779   3.506   5.122   1.720
  927SOL    HW1 2780   3.594   5.090   1.685
  927SOL    HW2 2781   3.494   5.218   1.696
  928SOL     OW 2782   1.356   5.903   0.773
  928SOL    HW1 2783   1.341   5.876   0.868
  928SOL    HW2 2784   1.291   5.856   0.714
  929SOL     OW 2785   0.689   3.069   2.313
  929SOL    HW1 2786   0.627   3.136   2.274
  929SOL    HW2 2787   0.770   3.115   2.350
  930SOL     OW 2788   1.011   0.440   1.301
  930SOL    HW1 2789   1.102   0.476   1.324
  930SOL    HW2 2790   1.020   0.349   1.260
  931SOL     OW 2791   1.523   0.378   3.750
  931SOL    HW1 2792   1.619   0.403   3.752
  931SOL    HW2 2793   1.500   0.339   3.661
  932SOL     OW 2794   3.107   0.184   1.578
  932SOL    HW1 2795   3.109   0.186   1.478
  932SOL    HW2 2796   3.071   0.095   1.608
  933SOL     OW 2797   3.121   4.942   4.179
  933SOL    HW1 2798   3.086   4.854   4.147
  933SOL    HW2 2799   3.184   4.927   4.255
  934SOL     OW 2800   0.226   4.342   4.819
  934SOL    HW1 2801   0.249   4.387   4.905
  934SOL    HW2 2802   0.130   4.314   4.821
  935SOL     OW 2803   2.658   5.860   0.672
  935SOL    HW1 2804   2.671   5.937   0.735
  935SOL    HW2 2805   2.598   5.792   0.715
  936SOL     OW 2806   5.507   4.804   3.602
  936SOL    HW1 2807   5.427   4.746   3.591
  936SOL    HW2 2808   5.589   4.746   3.609
  937SOL     OW 2809   5.121   2.366   1.749
  937SOL    HW1 2810   5.219   2.383   1.748
  937SOL    HW2 2811   5.091   2.345   1.843
  938SOL     OW 2812   3.573   2.161   2.564
  938SOL    HW1 2813   3.569   2.257   2.536
  938SOL    HW2 2814   3.482   2.121   2.559
  939SOL     OW 2815   5.496   5.170   1.414
  939SOL    HW1 2816   5.523   5.240   1.480
  939SOL    HW2 2817   5.482   5.083   1.462
  940SOL     OW 2818   1.933   5.578   1.951
  940SOL    HW1 2819   1.922   5.495   1.897
  940SOL    HW2 2820   1.854   5.590   2.011
  941SOL     OW 2821   1.669   0.150   0.684
  941SOL    HW1 2822   1.634   0.081   0.747
  941SOL    HW2 2823   1.702   0.107   0.600
  942SOL     OW 2824   2.370   5.173   3.253
  942SOL    HW1 2825   2.365   5.098   3.186
  942SOL    HW2 2826   2.460   5.174   3.296
  943SOL     OW 2827   0.668   6.239   1.780
  943SOL    HW1 2828   0.762   6.206   1.779
  943SOL    HW2 2829   0.652   6.294   1.862
  944SOL     OW 2830   0.583   2.531   1.288
  944SOL    HW1 2831   0.566   2.626   1.311
  944SOL    HW2 2832   0.663   2.498   1.339
  945SOL     OW 2833   1.521   0.510   1.013
  945SOL    HW1 2834   1.449   0.442   1.020
  945SOL    HW2 2835   1.488   0.589   0.962
  946SOL     OW 2836   3.893   5.749   2.417
  946SOL    HW1 2837   3.987   5.747   2.453
  946SOL    HW2 2838   3.879   5.669   2.358
  947SOL     OW 2839   5.265   4.334   1.179
  947SOL    HW1 2840   5.267   4.234   1.176
  947SOL    HW2 2841   5.348   4.371   1.137
  948SOL     OW 2842   4.779   3.299   2.321
  948SOL    HW1 2843   4.768   3.340   2.412
  948SOL    HW2 2844   4.693   3.258   2.293
  949SOL     OW 2845   2.598   4.138   4.396
  949SOL    HW1 2846   2.625   4.218   4.343
  949SOL    HW2 2847   2.536   4.166   4.469
  950SOL     OW 2848   2.533   0.149   2.935
  950SOL    HW1 2849   2.605   0.085   2.964
  950SOL    HW2 2850   2.450   0.098   2.914
  951SOL     OW 2851   0.218   5.053   1.646
  951SOL    HW1 2852   0.215   5.152   1.653
  951SOL    HW2 2853   0.312   5.023   1.631
  952SOL     OW 2854   3.150   5.778   4.240
  952SOL    HW1 2855   3.162   5.686   4.202
  952SOL    HW2 2856   3.133   5.843   4.166
  953SOL     OW 2857   2.742   2.050   0.305
  953SOL    HW1 2858   2.663   2.079   0.359
  953SOL    HW2 2859   2.808   2.126   0.301
  954SOL     OW 2860   5.947   1.685   3.409
  954SOL    HW1 2861   5.939   1.782   3.388
  954SOL    HW2 2862   6.023   1.646   3.357
  955SOL     OW 2863   1.061   6.262   0.786
  955SOL    HW1 2864   1.010   6.176   0.781
  955SOL    HW2 2865   0.999   6.337   0.810
  956SOL     OW 2866   4.438   0.422   3.128
  956SOL    HW1 2867   4.348   0.400   3.166
  956SOL    HW2 2868   4.429   0.500   3.065
  957SOL     OW 2869   5.559   1.355   4.705
  957SOL    HW1 2870   5.530   1.260   4.704
  957SOL    HW2 2871   5.479   1.415   4.702
  958SOL     OW 2872   5.979   6.089   4.863
  958SOL    HW1 2873   6.075   6.059   4.869
  958SOL    HW2 2874   5.921   6.010   4.844
  959SOL     OW 2875   5.902   1.240   4.435
  959SOL    HW1 2876   5.910   1.339   4.424
  959SOL    HW2 2877   5.993   1.199   4.446
  960SOL     OW 2878   6.046   5.000   3.134
  960SOL    HW1 2879   6.030   4.908   3.098
  960SOL    HW2 2880   6.135   5.004   3.179
  961SOL     OW 2881   5.332   5.875   1.750
  961SOL    HW1 2882   5.334   5.881   1.650
  961SOL    HW2 2883   5.413   5.919   1.788
  962SOL     OW 2884   0.132   5.196   2.926
  962SOL    HW1 2885   0.222   5.223   2.889
  962SOL    HW2 2886   0.060   5.244   2.876
  963SOL     OW 2887   2.175   2.819   2.414
  963SOL    HW1 2888   2.219   2.890   2.359
  963SOL    HW2 2889   2.088   2.793   2.372
  964SOL     OW 2890   6.177   0.766   3.349
  964SOL    HW1 2891   6.150   0.862   3.348
  964SOL    HW2 2892   6.276   0.758   3.358
  965SOL     OW 2893   1.493   0.518   3.934
  965SOL    HW1 2894   1.436   0.437   3.947
  965SOL    HW2 2895   1.475   0.585   4.006
  966SOL     OW 2896   1.311   4.810   2.069
  966SOL    HW1 2897   1.395   4.772   2.032
  966SOL    HW2 2898   1.311   4.800   2.169
  967SOL     OW 2899   1.399   1.043   0.373
  967SOL    HW1 2900   1.378   0.992   0.290
  967SOL    HW2 2901   1.346   1.128   0.375
  968SOL     OW 2902   3.578   0.378   4.846
  968SOL    HW1 2903   3.588   0.297   4.905
  968SOL    HW2 2904   3.583   0.350   4.750
  969SOL     OW 2905   2.848   6.028   4.676
  969SOL    HW1 2906   2.921   5.966   4.646
  969SOL    HW2 2907   2.881   6.122   4.672
  970SOL     OW 2908   5.871   0.987   3.515
  970SOL    HW1 2909   5.776   0.988   3.545
  970SOL    HW2 2910   5.884   0.913   3.448
  971SOL     OW 2911   1.775   2.480   0.848
  971SOL    HW1 2912   1.713   2.557   0.835
  971SOL    HW2 2913   1.732   2.414   0.910
  972SOL     OW 2914   1.677   4.299   0.922
  972SOL    HW1 2915   1.683   4.398   0.938
  972SOL    HW2 2916   1.603   4.280   0.857
  973SOL     OW 2917   4.716   6.231   1.838
  973SOL    HW1 2918   4.805   6.185   1.843
  973SOL    HW2 2919   4.643   6.163   1.830
  974SOL     OW 2920   2.937   2.758   2.581
  974SOL    HW1 2921   3.033   2.733   2.575
  974SOL    HW2 2922   2.880   2.677   2.566
  975SOL     OW 2923   3.271   0.498   0.961
  975SOL    HW1 2924   3.216   0.422   0.996
  975SOL    HW2 2925   3.214   0.580   0.954
  976SOL     OW 2926   3.136   3.848   2.596
  976SOL    HW1 2927   3.143   3.763   2.649
  976SOL    HW2 2928   3.077   3.832   2.516
  977SOL     OW 2929   0.892   1.664   1.448
  977SOL    HW1 2930   0.964   1.734   1.446
  977SOL    HW2 2931   0.933   1.573   1.450
  978SOL     OW 2932   6.189   1.947   3.591
  978SOL    HW1 2933   6.123   1.873   3.605
  978SOL    HW2 2934   6.140   2.029   3.561
  979SOL     OW 2935   5.504   2.541   2.508
  979SOL    HW1 2936   5.575   2.610   2.495
  979SOL    HW2 2937   5.416   2.585   2.522
  980SOL     OW 2938   2.323   3.504   3.582
  980SOL    HW1 2939   2.289   3.417   3.546
  980SOL    HW2 2940   2.370   3.554   3.509
  981SOL     OW 2941   0.147   3.096   0.911
  981SOL    HW1 2942   0.085   3.173   0.898
  981SOL    HW2 2943   0.106   3.013   0.876
  982SOL     OW 2944   1.626   5.058   1.258
  982SOL    HW1 2945   1.719   5.070   1.224
  982SOL    HW2 2946   1.630   5.026   1.353
  983SOL     OW 2947   2.343   0.085   3.176
  983SOL    HW1 2948   2.419   0.043   3.126
  983SOL    HW2 2949   2.350   0.185   3.168
  984SOL     OW 2950   5.303   4.933   4.289
  984SOL    HW1 2951   5.317   4.834   4.289
  984SOL    HW2 2952   5.205   4.953   4.296
  985SOL     OW 2953   4.731   5.024   3.950
  985SOL    HW1 2954   4.631   5.022   3.947
  985SOL    HW2 2955   4.763   5.118   3.938
  986SOL     OW 2956   4.072   5.856   0.166
  986SOL    HW1 2957   3.997   5.800   0.131
  986SOL    HW2 2958   4.129   5.886   0.090
  987SOL     OW 2959   6.267   5.104   2.684
  987SOL    HW1 2960   6.227   5.012   2.682
  987SOL    HW2 2961   6.212   5.162   2.744
  988SOL     OW 2962   3.401   2.132   4.276
  988SOL    HW1 2963   3.420   2.226   4.246
  988SOL    HW2 2964   3.335   2.090   4.214
  989SOL     OW 2965   5.329   2.179   3.340
  989SOL    HW1 2966   5.231   2.181   3.361
  989SOL    HW2 2967   5.375   2.116   3.403
  990SOL     OW 2968   5.566   0.496   2.890
  990SOL    HW1 2969   5.494   0.452   2.944
  990SOL    HW2 2970   5.617   0.426   2.840
  991SOL     OW 2971   2.751   0.757   3.357
  991SOL    HW1 2972   2.717   0.798   3.272
  991SOL    HW2 2973   2.731   0.659   3.357
  992SOL     OW 2974   1.237   2.501   3.594
  992SOL    HW1 2975   1.330   2.535   3.614
  992SOL    HW2 2976   1.236   2.402   3.600
  993SOL     OW 2977   5.978   5.107   4.561
  993SOL    HW1 2978   5.880   5.095   4.571
  993SOL    HW2 2979   6.022   5.018   4.548
  994SOL     OW 2980   1.277   0.618   4.236
  994SOL    HW1 2981   1.377   0.614   4.227
  994SOL    HW2 2982   1.237   0.642   4.147
  995SOL     OW 2983   3.954   5.876   1.377
  995SOL    HW1 2984   3.868   5.915   1.346
  995SOL    HW2 2985   4.014   5.949   1.411
  996SOL     OW 2986   0.726   2.168   2.414
  996SOL    HW1 2987   0.633   2.147   2.385
  996SOL    HW2 2988   0.788   2.094   2.386
  997SOL     OW 2989   4.000   3.639   0.697
  997SOL    HW1 2990   3.940   3.571   0.738
  997SOL    HW2 2991   3.995   3.724   0.749
  998SOL     OW 2992   4.897   5.762   0.788
  998SOL    HW1 2993   4.874   5.665   0.794
  998SOL    HW2 2994   4.814   5.817   0.797
  999SOL     OW 2995   3.416   3.405   3.036
  999SOL    HW1 2996   3.320   3.425   3.013
  999SOL    HW2 2997   3.458   3.355   2.960
 1000SOL     OW 2998   4.249   0.807   0.633
 1000SOL    HW1 2999   4.242   0.907   0.628
 1000SOL    HW2 3000   4.331   0.776   0.584
    1SOL     OW 3001   6.139   3.523  12.299
    1SOL    HW1 3002   6.152   3.425  12.313
    1SOL    HW2 3003   6.226   3.566  12.275
    2SOL     OW 3004   2.226   0.974  14.867
    2SOL    HW1 3005   2.223   0.887  14.817
    2SOL    HW2 3006   2.296   0.969  14.939
    3SOL     OW 3007   2.819   0.706  14.336
    3SOL    HW1 3008   2.889   0.768  14.300
    3SOL    HW2 3009   2.729   0.735  14.302
    4SOL     OW 3010   0.392   2.285  11.619
    4SOL    HW1 3011   0.432   2.375  11.601
    4SOL    HW2 3012   0.457   2.213  11.593
    5SOL     OW 3013   5.944   0.060  14.590
    5SOL    HW1 3014   5.868   0.034  14.650
    5SOL    HW2 3015   6.024   0.084  14.645
    6SOL     OW 3016   0.134   0.110  12.526
    6SOL    HW1 3017   0.176   0.166  12.455
    6SOL    HW2 3018   0.043   0.145  12.546
    7SOL     OW 3019   0.789   1.730  12.415
    7SOL    HW1 3020   0.692   1.755  12.415
    7SOL    HW2 3021   0.844   1.813  12.415
    8SOL     OW 3022   1.056   0.875  14.145
    8SOL    HW1 3023   0.988   0.825  14.199
    8SOL    HW2 3024   1.100   0.813  14.080
    9SOL     OW 3025   5.045   2.151  11.707
    9SOL    HW1 3026   4.967   2.213  11.710
    9SOL    HW2 3027   5.130   2.204  11.714
   10SOL     OW 3028   3.780   2.177  11.081
   10SOL    HW1 3029   3.781   2.158  11.179
   10SOL    HW2 3030   3.874   2.195  11.050
   11SOL     OW 3031   0.967   0.321  14.455
   11SOL    HW1 3032   1.062   0.289  14.454
   11SOL    HW2 3033   0.905   0.244  14.441
   12SOL     OW 3034   3.882   5.883  14.408
   12SOL    HW1 3035   3.929   5.799  14.436
   12SOL    HW2 3036   3.938   5.962  14.432
   13SOL     OW 3037   0.910   2.085  11.035
   13SOL    HW1 3038   0.986   2.026  11.061
   13SOL    HW2 3039   0.946   2.172  11.000
   14SOL     OW 3040   5.902   1.158  14.689
   14SOL    HW1 3041   5.963   1.238  14.698
   14SOL    HW2 3042   5.808   1.189  14.677
   15SOL     OW 3043   4.083   5.781  15.174
   15SOL    HW1 3044   4.010   5.811  15.236
   15SOL    HW2 3045   4.049   5.708  15.115
   16SOL     OW 3046   5.255   3.807  12.884
   16SOL    HW1 3047   5.320   3.731  12.877
   16SOL    HW2 3048   5.300   3.885  12.926
   17SOL     OW 3049   0.624   2.053  15.503
   17SOL    HW1 3050   0.626   1.969  15.557
   17SOL    HW2 3051   0.715   2.095  15.505
   18SOL     OW 3052   4.045   2.312  12.626
   18SOL    HW1 3053   3.959   2.347  12.663
   18SOL    HW2 3054   4.102   2.388  12.594
   19SOL     OW 3055   3.002   3.512  14.771
   19SOL    HW1 3056   3.051   3.513  14.684
   19SOL    HW2 3057   2.999   3.419  14.807
   20SOL     OW 3058   2.524   6.202  12.196
   20SOL    HW1 3059   2.569   6.114  12.210
   20SOL    HW2 3060   2.433   6.187  12.157
   21SOL     OW 3061   5.157   4.537  14.813
   21SOL    HW1 3062   5.149   4.594  14.894
   21SOL    HW2 3063   5.211   4.455  14.835
   22SOL     OW 3064   2.821   5.541  11.547
   22SOL    HW1 3065   2.750   5.472  11.534
   22SOL    HW2 3066   2.793   5.605  11.619
   23SOL     OW 3067   3.886   1.175  12.770
   23SOL    HW1 3068   3.793   1.205  12.751
   23SOL    HW2 3069   3.884   1.099  12.835
   24SOL     OW 3070   1.520   3.112  11.585
   24SOL    HW1 3071   1.572   3.030  11.610
   24SOL    HW2 3072   1.427   3.105  11.621
   25SOL     OW 3073   2.168   5.924  12.388
   25SOL    HW1 3074   2.117   5.838  12.390
   25SOL    HW2 3075   2.160   5.966  12.298
   26SOL     OW 3076   5.237   0.954  12.860
   26SOL    HW1 3077   5.298   1.030  12.883
   26SOL    HW2 3078   5.287   0.868  12.865
   27SOL     OW 3079   0.899   0.475  15.513
   27SOL    HW1 3080   0.810   0.444  15.548
   27SOL    HW2 3081   0.929   0.555  15.564
   28SOL     OW 3082   3.955   1.948  12.933
   28SOL    HW1 3083   3.881   2.012  12.952
   28SOL    HW2 3084   4.041   1.999  12.925
   29SOL     OW 3085   1.418   3.571  13.247
   29SOL    HW1 3086   1.318   3.568  13.248
   29SOL    HW2 3087   1.454   3.478  13.238
   30SOL     OW 3088   1.380   1.976  13.333
   30SOL    HW1 3089   1.357   1.880  13.349
   30SOL    HW2 3090   1.345   2.032  13.409
   31SOL     OW 3091   2.875   4.604  14.691
   31SOL    HW1 3092   2.907   4.557  14.773
   31SOL    HW2 3093   2.781   4.635  14.703
   32SOL     OW 3094   1.752   3.504  13.937
   32SOL    HW1 3095   1.724   3.554  13.855
   32SOL    HW2 3096   1.679   3.509  14.006
   33SOL     OW 3097   2.605   1.604  15.019
   33SOL    HW1 3098   2.633   1.696  15.049
   33SOL    HW2 3099   2.622   1.594  14.921
   34SOL     OW 3100   5.230   5.261  15.546
   34SOL    HW1 3101   5.330   5.263  15.541
   34SOL    HW2 3102   5.201   5.209  15.626
   35SOL     OW 3103   1.156   0.638  14.900
   35SOL    HW1 3104   1.255   0.651  14.899
   35SOL    HW2 3105   1.111   0.728  14.900
   36SOL     OW 3106   0.335   1.143  15.472
   36SOL    HW1 3107   0.402   1.078  15.439
   36SOL    HW2 3108   0.381   1.227  15.503
   37SOL     OW 3109   5.422   4.627  14.648
   37SOL    HW1 3110   5.377   4.578  14.573
   37SOL    HW2 3111   5.365   4.623  14.729
   38SOL     OW 3112   6.074   5.572  11.578
   38SOL    HW1 3113   6.086   5.661  11.536
   38SOL    HW2 3114   5.983   5.537  11.557
   39SOL     OW 3115   1.066   3.951  11.489
   39SOL    HW1 3116   1.022   4.040  11.488
   39SOL    HW2 3117   1.060   3.910  11.397
   40SOL     OW 3118   5.359   5.141  14.967
   40SOL    HW1 3119   5.268   5.159  14.930
   40SOL    HW2 3120   5.380   5.043  14.960
   41SOL     OW 3121   2.491   1.053  12.573
   41SOL    HW1 3122   2.404   1.043  12.621
   41SOL    HW2 3123   2.509   0.970  12.518
   42SOL     OW 3124   1.513   2.519  13.955
   42SOL    HW1 3125   1.418   2.494  13.974
   42SOL    HW2 3126   1.519   2.616  13.935
   43SOL     OW 3127   2.497   0.676  15.660
   43SOL    HW1 3128   2.572   0.742  15.665
   43SOL    HW2 3129   2.409   0.724  15.662
   44SOL     OW 3130   1.813   3.229  14.029
   44SOL    HW1 3131   1.744   3.240  13.958
   44SOL    HW2 3132   1.864   3.314  14.041
   45SOL     OW 3133   3.001   6.005  12.785
   45SOL    HW1 3134   3.077   6.015  12.849
   45SOL    HW2 3135   2.914   6.016  12.834
   46SOL     OW 3136   0.291   0.693  13.764
   46SOL    HW1 3137   0.369   0.631  13.767
   46SOL    HW2 3138   0.324   0.788  13.768
   47SOL     OW 3139   1.931   4.908  11.909
   47SOL    HW1 3140   1.928   5.008  11.900
   47SOL    HW2 3141   1.840   4.875  11.935
   48SOL     OW 3142   3.465   3.630  14.515
   48SOL    HW1 3143   3.506   3.720  14.527
   48SOL    HW2 3144   3.535   3.564  14.488
   49SOL     OW 3145   1.968   1.634  14.570
   49SOL    HW1 3146   2.040   1.594  14.627
   49SOL    HW2 3147   1.908   1.561  14.537
   50SOL     OW 3148   5.954   0.241  12.255
   50SOL    HW1 3149   5.907   0.204  12.175
   50SOL    HW2 3150   6.052   0.222  12.248
   51SOL     OW 3151   3.724   1.711  13.384
   51SOL    HW1 3152   3.802   1.769  13.361
   51SOL    HW2 3153   3.656   1.764  13.435
   52SOL     OW 3154   5.216   6.112  14.065
   52SOL    HW1 3155   5.167   6.190  14.104
   52SOL    HW2 3156   5.208   6.115  13.965
   53SOL     OW 3157   0.448   0.468  15.472
   53SOL    HW1 3158   0.424   0.553  15.520
   53SOL    HW2 3159   0.432   0.390  15.533
   54SOL     OW 3160   5.446   0.485  12.974
   54SOL    HW1 3161   5.532   0.475  12.923
   54SOL    HW2 3162   5.423   0.582  12.983
   55SOL     OW 3163   1.031   5.646  12.295
   55SOL    HW1 3164   0.970   5.644  12.215
   55SOL    HW2 3165   1.075   5.736  12.300
   56SOL     OW 3166   2.662   0.139  11.195
   56SOL    HW1 3167   2.610   0.072  11.141
   56SOL    HW2 3168   2.759   0.117  11.191
   57SOL     OW 3169   0.093   0.595  15.698
   57SOL    HW1 3170   0.181   0.641  15.688
   57SOL    HW2 3171   0.101   0.501  15.663
   58SOL     OW 3172   4.865   1.992  11.564
   58SOL    HW1 3173   4.825   2.081  11.587
   58SOL    HW2 3174   4.795   1.934  11.523
   59SOL     OW 3175   5.691   0.472  15.654
   59SOL    HW1 3176   5.668   0.375  15.656
   59SOL    HW2 3177   5.628   0.523  15.713
   60SOL     OW 3178   1.792   1.740  14.864
   60SOL    HW1 3179   1.699   1.705  14.860
   60SOL    HW2 3180   1.790   1.840  14.866
   61SOL     OW 3181   6.101   0.378  14.127
   61SOL    HW1 3182   6.186   0.406  14.172
   61SOL    HW2 3183   6.024   0.425  14.170
   62SOL     OW 3184   5.264   3.696  14.134
   62SOL    HW1 3185   5.233   3.632  14.205
   62SOL    HW2 3186   5.323   3.648  14.069
   63SOL     OW 3187   2.223   5.934  11.161
   63SOL    HW1 3188   2.230   6.033  11.174
   63SOL    HW2 3189   2.127   5.907  11.157
   64SOL     OW 3190   4.318   1.038  13.429
   64SOL    HW1 3191   4.240   0.976  13.418
   64SOL    HW2 3192   4.403   0.986  13.420
   65SOL     OW 3193   2.676   6.064  13.394
   65SOL    HW1 3194   2.711   6.133  13.457
   65SOL    HW2 3195   2.729   5.980  13.403
   66SOL     OW 3196   0.547   5.292  12.389
   66SOL    HW1 3197   0.532   5.195  12.370
   66SOL    HW2 3198   0.617   5.301  12.460
   67SOL     OW 3199   1.352   1.263  11.625
   67SOL    HW1 3200   1.431   1.273  11.685
   67SOL    HW2 3201   1.275   1.316  11.661
   68SOL     OW 3202   1.473   3.928  11.415
   68SOL    HW1 3203   1.389   3.876  11.430
   68SOL    HW2 3204   1.505   3.964  11.503
   69SOL     OW 3205   2.203   2.095  13.200
   69SOL    HW1 3206   2.104   2.092  13.219
   69SOL    HW2 3207   2.242   2.177  13.241
   70SOL     OW 3208   2.146   0.797  14.978
   70SOL    HW1 3209   2.140   0.706  14.937
   70SOL    HW2 3210   2.224   0.801  15.040
   71SOL     OW 3211   3.918   2.493  11.415
   71SOL    HW1 3212   3.973   2.564  11.371
   71SOL    HW2 3213   3.823   2.524  11.422
   72SOL     OW 3214   5.927   5.788  14.282
   72SOL    HW1 3215   5.867   5.867  14.273
   72SOL    HW2 3216   6.014   5.816  14.323
   73SOL     OW 3217   4.143   0.297  14.444
   73SOL    HW1 3218   4.087   0.353  14.383
   73SOL    HW2 3219   4.170   0.351  14.524
   74SOL     OW 3220   2.022   1.129  14.936
   74SOL    HW1 3221   2.019   1.147  14.837
   74SOL    HW2 3222   1.929   1.109  14.969
   75SOL     OW 3223   2.005   3.157  12.146
   75SOL    HW1 3224   2.034   3.180  12.240
   75SOL    HW2 3225   2.069   3.198  12.081
   76SOL     OW 3226   4.644   3.117  14.202
   76SOL    HW1 3227   4.718   3.050  14.199
   76SOL    HW2 3228   4.558   3.071  14.224
   77SOL     OW 3229   2.023   0.231  15.576
   77SOL    HW1 3230   2.081   0.160  15.534
   77SOL    HW2 3231   1.937   0.190  15.607
   78SOL     OW 3232   0.168   3.765  14.184
   78SOL    HW1 3233   0.175   3.729  14.278
   78SOL    HW2 3234   0.212   3.855  14.180
   79SOL     OW 3235   3.553   1.788  14.307
   79SOL    HW1 3236   3.478   1.824  14.251
   79SOL    HW2 3237   3.565   1.691  14.288
   80SOL     OW 3238   5.433   2.090  12.719
   80SOL    HW1 3239   5.340   2.061  12.743
   80SOL    HW2 3240   5.484   2.012  12.682
   81SOL     OW 3241   5.686   3.609  11.537
   81SOL    HW1 3242   5.771   3.556  11.541
   81SOL    HW2 3243   5.708   3.706  11.526
   82SOL     OW 3244   0.504   0.306  13.720
   82SOL    HW1 3245   0.556   0.386  13.691
   82SOL    HW2 3246   0.547   0.223  13.683
   83SOL     OW 3247   4.324   1.588  15.291
   83SOL    HW1 3248   4.374   1.627  15.368
   83SOL    HW2 3249   4.244   1.644  15.271
   84SOL     OW 3250   0.453   1.339  15.128
   84SOL    HW1 3251   0.395   1.315  15.050
   84SOL    HW2 3252   0.407   1.409  15.184
   85SOL     OW 3253   6.048   1.229  14.340
   85SOL    HW1 3254   6.028   1.232  14.243
   85SOL    HW2 3255   5.963   1.233  14.392
   86SOL     OW 3256   5.337   0.547  13.291
   86SOL    HW1 3257   5.300   0.636  13.265
   86SOL    HW2 3258   5.271   0.476  13.266
   87SOL     OW 3259   3.266   1.654  15.925
   87SOL    HW1 3260   3.268   1.588  16.000
   87SOL    HW2 3261   3.279   1.746  15.962
   88SOL     OW 3262   5.443   5.266  11.486
   88SOL    HW1 3263   5.395   5.201  11.429
   88SOL    HW2 3264   5.500   5.325  11.429
   89SOL     OW 3265   5.547   0.875  13.630
   89SOL    HW1 3266   5.600   0.894  13.547
   89SOL    HW2 3267   5.601   0.818  13.692
   90SOL     OW 3268   0.259   4.406  15.414
   90SOL    HW1 3269   0.342   4.399  15.468
   90SOL    HW2 3270   0.249   4.324  15.358
   91SOL     OW 3271   5.614   1.473  12.231
   91SOL    HW1 3272   5.579   1.549  12.287
   91SOL    HW2 3273   5.682   1.508  12.167
   92SOL     OW 3274   5.472   3.948  11.502
   92SOL    HW1 3275   5.386   3.898  11.514
   92SOL    HW2 3276   5.456   4.045  11.518
   93SOL     OW 3277   0.543   4.221  11.187
   93SOL    HW1 3278   0.636   4.259  11.189
   93SOL    HW2 3279   0.547   4.124  11.163
   94SOL     OW 3280   3.859   4.333  13.754
   94SOL    HW1 3281   3.873   4.392  13.834
   94SOL    HW2 3282   3.776   4.279  13.767
   95SOL     OW 3283   2.649   3.181  11.782
   95SOL    HW1 3284   2.584   3.237  11.731
   95SOL    HW2 3285   2.610   3.090  11.796
   96SOL     OW 3286   3.735   4.025  12.748
   96SOL    HW1 3287   3.719   3.988  12.656
   96SOL    HW2 3288   3.647   4.041  12.793
   97SOL     OW 3289   3.816   5.064  11.752
   97SOL    HW1 3290   3.796   4.992  11.818
   97SOL    HW2 3291   3.866   5.025  11.674
   98SOL     OW 3292   5.772   0.958  14.198
   98SOL    HW1 3293   5.758   0.879  14.139
   98SOL    HW2 3294   5.865   0.958  14.234
   99SOL     OW 3295   4.481   1.959  11.566
   99SOL    HW1 3296   4.580   1.959  11.579
   99SOL    HW2 3297   4.441   2.040  11.608
  100SOL     OW 3298   4.004   4.846  14.257
  100SOL    HW1 3299   4.001   4.758  14.303
  100SOL    HW2 3300   3.915   4.865  14.215
  101SOL     OW 3301   0.246   6.253  15.108
  101SOL    HW1 3302   0.329   6.199  15.120
  101SOL    HW2 3303   0.255   6.340  15.157
  102SOL     OW 3304   1.210   5.995  15.068
  102SOL    HW1 3305   1.187   5.900  15.046
  102SOL    HW2 3306   1.126   6.048  15.080
  103SOL     OW 3307   4.330   6.001  12.216
  103SOL    HW1 3308   4.374   5.916  12.243
  103SOL    HW2 3309   4.399   6.066  12.184
  104SOL     OW 3310   1.848   3.352  15.460
  104SOL    HW1 3311   1.917   3.286  15.488
  104SOL    HW2 3312   1.762   3.304  15.440
  105SOL     OW 3313   3.305   2.737  15.130
  105SOL    HW1 3314   3.246   2.705  15.056
  105SOL    HW2 3315   3.250   2.786  15.198
  106SOL     OW 3316   2.693   5.620  11.156
  106SOL    HW1 3317   2.786   5.642  11.128
  106SOL    HW2 3318   2.689   5.524  11.185
  107SOL     OW 3319   4.697   1.655  14.815
  107SOL    HW1 3320   4.650   1.704  14.888
  107SOL    HW2 3321   4.683   1.556  14.826
  108SOL     OW 3322   4.167   4.981  12.165
  108SOL    HW1 3323   4.207   5.071  12.144
  108SOL    HW2 3324   4.170   4.967  12.264
  109SOL     OW 3325   1.931   0.681  15.859
  109SOL    HW1 3326   1.961   0.625  15.782
  109SOL    HW2 3327   1.862   0.746  15.827
  110SOL     OW 3328   4.536   2.080  12.736
  110SOL    HW1 3329   4.590   2.024  12.799
  110SOL    HW2 3330   4.580   2.082  12.646
  111SOL     OW 3331   5.473   0.453  11.824
  111SOL    HW1 3332   5.546   0.387  11.845
  111SOL    HW2 3333   5.499   0.544  11.857
  112SOL     OW 3334   6.063   1.500  12.458
  112SOL    HW1 3335   6.077   1.403  12.480
  112SOL    HW2 3336   6.151   1.547  12.455
  113SOL     OW 3337   1.495   1.518  11.809
  113SOL    HW1 3338   1.594   1.529  11.810
  113SOL    HW2 3339   1.452   1.609  11.808
  114SOL     OW 3340   6.046   3.714  12.621
  114SOL    HW1 3341   6.146   3.725  12.616
  114SOL    HW2 3342   6.003   3.804  12.622
  115SOL     OW 3343   4.393   1.075  15.730
  115SOL    HW1 3344   4.447   1.082  15.814
  115SOL    HW2 3345   4.377   0.979  15.709
  116SOL     OW 3346   0.770   0.707  11.091
  116SOL    HW1 3347   0.822   0.768  11.032
  116SOL    HW2 3348   0.823   0.685  11.173
  117SOL     OW 3349   4.840   0.585  14.268
  117SOL    HW1 3350   4.928   0.629  14.282
  117SOL    HW2 3351   4.853   0.498  14.219
  118SOL     OW 3352   2.030   2.682  11.095
  118SOL    HW1 3353   1.960   2.754  11.091
  118SOL    HW2 3354   1.993   2.598  11.055
  119SOL     OW 3355   3.103   5.242  12.865
  119SOL    HW1 3356   3.166   5.164  12.868
  119SOL    HW2 3357   3.009   5.210  12.858
  120SOL     OW 3358   2.550   2.853  15.636
  120SOL    HW1 3359   2.489   2.794  15.689
  120SOL    HW2 3360   2.643   2.814  15.636
  121SOL     OW 3361   5.582   2.786  14.349
  121SOL    HW1 3362   5.583   2.687  14.365
  121SOL    HW2 3363   5.673   2.823  14.362
  122SOL     OW 3364   5.586   0.280  14.915
  122SOL    HW1 3365   5.528   0.198  14.913
  122SOL    HW2 3366   5.682   0.252  14.919
  123SOL     OW 3367   4.696   5.756  15.422
  123SOL    HW1 3368   4.650   5.714  15.500
  123SOL    HW2 3369   4.725   5.685  15.358
  124SOL     OW 3370   2.961   3.428  14.456
  124SOL    HW1 3371   2.869   3.416  14.493
  124SOL    HW2 3372   2.962   3.506  14.393
  125SOL     OW 3373   4.819   2.728  12.786
  125SOL    HW1 3374   4.787   2.734  12.881
  125SOL    HW2 3375   4.842   2.634  12.764
  126SOL     OW 3376   4.489   3.777  12.353
  126SOL    HW1 3377   4.495   3.689  12.307
  126SOL    HW2 3378   4.537   3.846  12.300
  127SOL     OW 3379   0.087   5.361  12.447
  127SOL    HW1 3380   0.117   5.331  12.357
  127SOL    HW2 3381   0.147   5.323  12.517
  128SOL     OW 3382   5.027   4.351  13.282
  128SOL    HW1 3383   4.940   4.303  13.270
  128SOL    HW2 3384   5.103   4.292  13.255
  129SOL     OW 3385   6.209   4.298  12.931
  129SOL    HW1 3386   6.165   4.386  12.916
  129SOL    HW2 3387   6.143   4.224  12.919
  130SOL     OW 3388   1.838   0.682  13.234
  130SOL    HW1 3389   1.847   0.740  13.153
  130SOL    HW2 3390   1.929   0.652  13.264
  131SOL     OW 3391   4.495   4.042  15.400
  131SOL    HW1 3392   4.473   4.124  15.347
  131SOL    HW2 3393   4.411   4.006  15.442
  132SOL     OW 3394   1.467   2.259  15.631
  132SOL    HW1 3395   1.495   2.302  15.545
  132SOL    HW2 3396   1.510   2.169  15.639
  133SOL     OW 3397   0.204   5.478  11.473
  133SOL    HW1 3398   0.197   5.392  11.524
  133SOL    HW2 3399   0.292   5.484  11.428
  134SOL     OW 3400   1.126   3.648  12.868
  134SOL    HW1 3401   1.219   3.685  12.871
  134SOL    HW2 3402   1.127   3.552  12.898
  135SOL     OW 3403   4.817   6.263  14.782
  135SOL    HW1 3404   4.812   6.167  14.808
  135SOL    HW2 3405   4.724   6.300  14.774
  136SOL     OW 3406   1.124   4.792  14.790
  136SOL    HW1 3407   1.099   4.868  14.850
  136SOL    HW2 3408   1.222   4.773  14.798
  137SOL     OW 3409   6.277   0.804  14.875
  137SOL    HW1 3410   6.253   0.842  14.964
  137SOL    HW2 3411   6.208   0.830  14.807
  138SOL     OW 3412   4.871   5.188  14.602
  138SOL    HW1 3413   4.956   5.160  14.556
  138SOL    HW2 3414   4.863   5.140  14.689
  139SOL     OW 3415   4.430   3.216  11.965
  139SOL    HW1 3416   4.453   3.177  12.054
  139SOL    HW2 3417   4.511   3.260  11.926
  140SOL     OW 3418   1.994   4.277  14.920
  140SOL    HW1 3419   2.014   4.304  14.826
  140SOL    HW2 3420   1.995   4.359  14.979
  141SOL     OW 3421   6.016   4.268  12.674
  141SOL    HW1 3422   6.112   4.282  12.650
  141SOL    HW2 3423   5.999   4.171  12.691
  142SOL     OW 3424   4.720   0.894  14.108
  142SOL    HW1 3425   4.661   0.815  14.126
  142SOL    HW2 3426   4.665   0.972  14.080
  143SOL     OW 3427   1.631   2.084  11.316
  143SOL    HW1 3428   1.555   2.148  11.320
  143SOL    HW2 3429   1.713   2.125  11.357
  144SOL     OW 3430   3.806   0.878  14.277
  144SOL    HW1 3431   3.880   0.914  14.334
  144SOL    HW2 3432   3.760   0.804  14.326
  145SOL     OW 3433   1.207   2.165  12.725
  145SOL    HW1 3434   1.110   2.143  12.729
  145SOL    HW2 3435   1.218   2.260  12.693
  146SOL     OW 3436   4.232   4.981  11.600
  146SOL    HW1 3437   4.319   4.936  11.578
  146SOL    HW2 3438   4.167   4.912  11.632
  147SOL     OW 3439   1.323   4.482  13.656
  147SOL    HW1 3440   1.316   4.580  13.669
  147SOL    HW2 3441   1.317   4.461  13.558
  148SOL     OW 3442   3.980   4.727  11.543
  148SOL    HW1 3443   3.933   4.661  11.484
  148SOL    HW2 3444   4.023   4.797  11.486
  149SOL     OW 3445   5.834   1.566  13.733
  149SOL    HW1 3446   5.857   1.470  13.745
  149SOL    HW2 3447   5.834   1.589  13.636
  150SOL     OW 3448   3.520   5.521  12.587
  150SOL    HW1 3449   3.546   5.618  12.586
  150SOL    HW2 3450   3.421   5.512  12.590
  151SOL     OW 3451   2.769   4.486  12.540
  151SOL    HW1 3452   2.726   4.577  12.541
  151SOL    HW2 3453   2.868   4.496  12.540
  152SOL     OW 3454   5.049   2.323  15.517
  152SOL    HW1 3455   5.079   2.227  15.517
  152SOL    HW2 3456   4.963   2.330  15.568
  153SOL     OW 3457   1.676   2.783  12.354
  153SOL    HW1 3458   1.663   2.688  12.325
  153SOL    HW2 3459   1.600   2.839  12.320
  154SOL     OW 3460   2.218   4.557  14.558
  154SOL    HW1 3461   2.265   4.645  14.561
  154SOL    HW2 3462   2.173   4.540  14.645
  155SOL     OW 3463   2.515   1.414  15.306
  155SOL    HW1 3464   2.469   1.464  15.380
  155SOL    HW2 3465   2.595   1.366  15.342
  156SOL     OW 3466   0.622   0.229  12.476
  156SOL    HW1 3467   0.615   0.240  12.377
  156SOL    HW2 3468   0.630   0.132  12.499
  157SOL     OW 3469   3.408   4.665  14.629
  157SOL    HW1 3470   3.457   4.718  14.559
  157SOL    HW2 3471   3.473   4.640  14.701
  158SOL     OW 3472   3.073   2.533  11.396
  158SOL    HW1 3473   3.086   2.536  11.495
  158SOL    HW2 3474   2.997   2.592  11.371
  159SOL     OW 3475   2.727   3.043  14.552
  159SOL    HW1 3476   2.776   3.041  14.639
  159SOL    HW2 3477   2.675   2.958  14.540
  160SOL     OW 3478   4.357   6.109  11.612
  160SOL    HW1 3479   4.445   6.077  11.648
  160SOL    HW2 3480   4.332   6.055  11.532
  161SOL     OW 3481   2.064   6.206  12.474
  161SOL    HW1 3482   1.967   6.229  12.474
  161SOL    HW2 3483   2.082   6.136  12.543
  162SOL     OW 3484   1.589   5.238  15.840
  162SOL    HW1 3485   1.583   5.268  15.745
  162SOL    HW2 3486   1.591   5.317  15.900
  163SOL     OW 3487   4.424   1.882  15.228
  163SOL    HW1 3488   4.484   1.962  15.226
  163SOL    HW2 3489   4.356   1.893  15.300
  164SOL     OW 3490   1.849   5.113  13.847
  164SOL    HW1 3491   1.813   5.111  13.940
  164SOL    HW2 3492   1.773   5.111  13.782
  165SOL     OW 3493   5.657   3.977  14.404
  165SOL    HW1 3494   5.756   3.985  14.411
  165SOL    HW2 3495   5.615   4.065  14.425
  166SOL     OW 3496   5.310   5.436  12.528
  166SOL    HW1 3497   5.401   5.431  12.486
  166SOL    HW2 3498   5.291   5.350  12.575
  167SOL     OW 3499   5.583   5.008  14.010
  167SOL    HW1 3500   5.592   4.909  14.005
  167SOL    HW2 3501   5.552   5.042  13.921
  168SOL     OW 3502   2.858   5.171  13.794
  168SOL    HW1 3503   2.800   5.090  13.792
  168SOL    HW2 3504   2.951   5.144  13.819
  169SOL     OW 3505   3.461   0.899  14.609
  169SOL    HW1 3506   3.364   0.907  14.591
  169SOL    HW2 3507   3.510   0.884  14.523
  170SOL     OW 3508   5.634   0.088  11.266
  170SOL    HW1 3509   5.663   0.164  11.324
  170SOL    HW2 3510   5.710   0.058  11.209
  171SOL     OW 3511   3.548   6.195  13.967
  171SOL    HW1 3512   3.511   6.287  13.958
  171SOL    HW2 3513   3.479   6.128  13.938
  172SOL     OW 3514   3.092   3.933  11.885
  172SOL    HW1 3515   3.063   3.949  11.791
  172SOL    HW2 3516   3.184   3.970  11.900
  173SOL     OW 3517   3.652   0.567  13.527
  173SOL    HW1 3518   3.594   0.529  13.600
  173SOL    HW2 3519   3.616   0.539  13.438
  174SOL     OW 3520   0.228   1.977  15.178
  174SOL    HW1 3521   0.157   1.936  15.120
  174SOL    HW2 3522   0.232   2.076  15.160
  175SOL     OW 3523   5.961   1.372  13.264
  175SOL    HW1 3524   5.978   1.277  13.236
  175SOL    HW2 3525   5.862   1.388  13.265
  176SOL     OW 3526   5.098   3.396  11.799
  176SOL    HW1 3527   5.158   3.410  11.878
  176SOL    HW2 3528   5.009   3.438  11.817
  177SOL     OW 3529   5.068   5.555  11.530
  177SOL    HW1 3530   5.100   5.648  11.546
  177SOL    HW2 3531   5.016   5.552  11.445
  178SOL     OW 3532   6.277   5.917  15.584
  178SOL    HW1 3533   6.275   5.974  15.666
  178SOL    HW2 3534   6.186   5.881  15.566
  179SOL     OW 3535   5.322   5.373  15.150
  179SOL    HW1 3536   5.371   5.382  15.063
  179SOL    HW2 3537   5.329   5.278  15.182
  180SOL     OW 3538   6.188   4.846  15.221
  180SOL    HW1 3539   6.100   4.801  15.240
  180SOL    HW2 3540   6.211   4.834  15.124
  181SOL     OW 3541   1.391   1.457  12.822
  181SOL    HW1 3542   1.293   1.436  12.827
  181SOL    HW2 3543   1.403   1.556  12.824
  182SOL     OW 3544   2.732   3.467  12.557
  182SOL    HW1 3545   2.677   3.485  12.475
  182SOL    HW2 3546   2.787   3.385  12.544
  183SOL     OW 3547   1.329   0.785  12.272
  183SOL    HW1 3548   1.428   0.780  12.269
  183SOL    HW2 3549   1.299   0.881  12.263
  184SOL     OW 3550   2.546   5.303  11.442
  184SOL    HW1 3551   2.545   5.280  11.540
  184SOL    HW2 3552   2.487   5.240  11.392
  185SOL     OW 3553   2.390   5.889  15.585
  185SOL    HW1 3554   2.341   5.866  15.670
  185SOL    HW2 3555   2.454   5.816  15.563
  186SOL     OW 3556   1.752   4.683  13.348
  186SOL    HW1 3557   1.705   4.595  13.336
  186SOL    HW2 3558   1.850   4.668  13.356
  187SOL     OW 3559   5.206   1.658  14.339
  187SOL    HW1 3560   5.106   1.661  14.340
  187SOL    HW2 3561   5.242   1.752  14.338
  188SOL     OW 3562   0.201   4.997  12.649
  188SOL    HW1 3563   0.114   4.955  12.625
  188SOL    HW2 3564   0.272   4.926  12.654
  189SOL     OW 3565   4.035   1.689  14.184
  189SOL    HW1 3566   4.062   1.732  14.270
  189SOL    HW2 3567   4.027   1.590  14.198
  190SOL     OW 3568   6.036   2.559  13.097
  190SOL    HW1 3569   6.001   2.652  13.095
  190SOL    HW2 3570   5.968   2.496  13.059
  191SOL     OW 3571   5.893   5.562  11.193
  191SOL    HW1 3572   5.953   5.554  11.113
  191SOL    HW2 3573   5.814   5.502  11.181
  192SOL     OW 3574   0.778   4.547  15.981
  192SOL    HW1 3575   0.721   4.485  15.927
  192SOL    HW2 3576   0.872   4.543  15.948
  193SOL     OW 3577   3.231   2.416  12.313
  193SOL    HW1 3578   3.268   2.509  12.315
  193SOL    HW2 3579   3.306   2.350  12.313
  194SOL     OW 3580   2.752   0.298  11.420
  194SOL    HW1 3581   2.686   0.336  11.356
  194SOL    HW2 3582   2.740   0.199  11.426
  195SOL     OW 3583   3.256   0.104  11.836
  195SOL    HW1 3584   3.257   0.020  11.782
  195SOL    HW2 3585   3.350   0.136  11.849
  196SOL     OW 3586   2.512   1.066  15.076
  196SOL    HW1 3587   2.465   1.135  15.132
  196SOL    HW2 3588   2.608   1.060  15.105
  197SOL     OW 3589   1.856   0.088  12.903
  197SOL    HW1 3590   1.811  -0.000  12.890
  197SOL    HW2 3591   1.787   0.161  12.909
  198SOL     OW 3592   4.091   3.392  11.184
  198SOL    HW1 3593   4.035   3.443  11.249
  198SOL    HW2 3594   4.042   3.382  11.098
  199SOL     OW 3595   0.977   1.317  13.408
  199SOL    HW1 3596   0.886   1.355  13.391
  199SOL    HW2 3597   0.969   1.237  13.467
  200SOL     OW 3598   2.435   2.360  11.830
  200SOL    HW1 3599   2.460   2.453  11.803
  200SOL    HW2 3600   2.515   2.315  11.871
  201SOL     OW 3601   5.176   3.208  13.443
  201SOL    HW1 3602   5.110   3.282  13.458
  201SOL    HW2 3603   5.130   3.120  13.445
  202SOL     OW 3604   3.540   3.527  12.310
  202SOL    HW1 3605   3.620   3.467  12.322
  202SOL    HW2 3606   3.540   3.564  12.217
  203SOL     OW 3607   4.470   4.831  15.487
  203SOL    HW1 3608   4.453   4.776  15.569
  203SOL    HW2 3609   4.564   4.866  15.489
  204SOL     OW 3610   4.446   2.086  12.430
  204SOL    HW1 3611   4.397   2.056  12.348
  204SOL    HW2 3612   4.543   2.095  12.410
  205SOL     OW 3613   0.862   0.247  13.715
  205SOL    HW1 3614   0.769   0.280  13.724
  205SOL    HW2 3615   0.862   0.147  13.709
  206SOL     OW 3616   1.987   2.380  15.144
  206SOL    HW1 3617   2.002   2.284  15.168
  206SOL    HW2 3618   1.953   2.387  15.050
  207SOL     OW 3619   5.689   1.334  12.431
  207SOL    HW1 3620   5.606   1.295  12.392
  207SOL    HW2 3621   5.746   1.262  12.470
  208SOL     OW 3622   4.265   5.814  14.405
  208SOL    HW1 3623   4.360   5.817  14.376
  208SOL    HW2 3624   4.249   5.884  14.475
  209SOL     OW 3625   5.554   1.317  12.974
  209SOL    HW1 3626   5.511   1.319  12.884
  209SOL    HW2 3627   5.552   1.409  13.014
  210SOL     OW 3628   4.301   6.134  13.398
  210SOL    HW1 3629   4.332   6.208  13.458
  210SOL    HW2 3630   4.276   6.055  13.454
  211SOL     OW 3631   5.588   3.540  14.186
  211SOL    HW1 3632   5.643   3.617  14.155
  211SOL    HW2 3633   5.508   3.575  14.236
  212SOL     OW 3634   0.900   0.698  15.896
  212SOL    HW1 3635   0.822   0.727  15.840
  212SOL    HW2 3636   0.892   0.601  15.916
  213SOL     OW 3637   4.997   4.111  12.636
  213SOL    HW1 3638   4.966   4.099  12.541
  213SOL    HW2 3639   4.919   4.130  12.695
  214SOL     OW 3640   5.812   2.354  14.344
  214SOL    HW1 3641   5.857   2.268  14.366
  214SOL    HW2 3642   5.761   2.388  14.423
  215SOL     OW 3643   2.308   4.274  11.047
  215SOL    HW1 3644   2.240   4.217  11.095
  215SOL    HW2 3645   2.393   4.276  11.099
  216SOL     OW 3646   6.148   0.584  13.191
  216SOL    HW1 3647   6.202   0.652  13.141
  216SOL    HW2 3648   6.209   0.526  13.245
  217SOL     OW 3649   3.884   0.384  12.483
  217SOL    HW1 3650   3.796   0.424  12.457
  217SOL    HW2 3651   3.882   0.358  12.579
  218SOL     OW 3652   5.485   2.873  12.176
  218SOL    HW1 3653   5.391   2.906  12.175
  218SOL    HW2 3654   5.548   2.950  12.164
  219SOL     OW 3655   2.779   0.219  12.852
  219SOL    HW1 3656   2.812   0.128  12.875
  219SOL    HW2 3657   2.679   0.221  12.859
  220SOL     OW 3658   3.917   4.651  11.186
  220SOL    HW1 3659   3.854   4.574  11.177
  220SOL    HW2 3660   3.865   4.736  11.197
  221SOL     OW 3661   2.739   0.100  15.063
  221SOL    HW1 3662   2.641   0.118  15.059
  221SOL    HW2 3663   2.755   0.002  15.055
  222SOL     OW 3664   3.327   2.801  14.857
  222SOL    HW1 3665   3.401   2.741  14.889
  222SOL    HW2 3666   3.343   2.894  14.889
  223SOL     OW 3667   5.456   5.684  11.403
  223SOL    HW1 3668   5.520   5.746  11.358
  223SOL    HW2 3669   5.363   5.719  11.390
  224SOL     OW 3670   5.051   2.082  15.305
  224SOL    HW1 3671   5.073   1.985  15.308
  224SOL    HW2 3672   5.136   2.135  15.296
  225SOL     OW 3673   3.853   3.596  15.317
  225SOL    HW1 3674   3.861   3.661  15.241
  225SOL    HW2 3675   3.944   3.563  15.342
  226SOL     OW 3676   1.445   1.020  15.112
  226SOL    HW1 3677   1.517   0.965  15.156
  226SOL    HW2 3678   1.444   1.112  15.152
  227SOL     OW 3679   0.846   3.485  13.033
  227SOL    HW1 3680   0.876   3.543  13.109
  227SOL    HW2 3681   0.833   3.391  13.065
  228SOL     OW 3682   3.227   2.115  11.882
  228SOL    HW1 3683   3.195   2.137  11.790
  228SOL    HW2 3684   3.325   2.138  11.890
  229SOL     OW 3685   5.297   0.144  13.499
  229SOL    HW1 3686   5.349   0.200  13.435
  229SOL    HW2 3687   5.304   0.182  13.591
  230SOL     OW 3688   3.496   0.456  15.071
  230SOL    HW1 3689   3.438   0.537  15.078
  230SOL    HW2 3690   3.537   0.452  14.980
  231SOL     OW 3691   0.777   5.499  12.168
  231SOL    HW1 3692   0.699   5.562  12.164
  231SOL    HW2 3693   0.779   5.444  12.084
  232SOL     OW 3694   4.434   0.570  12.424
  232SOL    HW1 3695   4.465   0.571  12.519
  232SOL    HW2 3696   4.476   0.646  12.375
  233SOL     OW 3697   4.871   1.252  11.196
  233SOL    HW1 3698   4.863   1.173  11.136
  233SOL    HW2 3699   4.923   1.227  11.278
  234SOL     OW 3700   4.630   2.315  11.505
  234SOL    HW1 3701   4.649   2.236  11.447
  234SOL    HW2 3702   4.700   2.323  11.576
  235SOL     OW 3703   1.123   5.239  11.434
  235SOL    HW1 3704   1.202   5.283  11.476
  235SOL    HW2 3705   1.056   5.309  11.410
  236SOL     OW 3706   4.429   6.273  11.196
  236SOL    HW1 3707   4.487   6.198  11.165
  236SOL    HW2 3708   4.333   6.242  11.200
  237SOL     OW 3709   4.031   5.102  13.591
  237SOL    HW1 3710   4.027   5.101  13.491
  237SOL    HW2 3711   4.102   5.165  13.621
  238SOL     OW 3712   0.802   0.995  14.882
  238SOL    HW1 3713   0.769   1.006  14.976
  238SOL    HW2 3714   0.724   0.977  14.821
  239SOL     OW 3715   5.278   3.139  15.547
  239SOL    HW1 3716   5.354   3.123  15.609
  239SOL    HW2 3717   5.221   3.213  15.582
  240SOL     OW 3718   2.790   3.938  12.545
  240SOL    HW1 3719   2.802   4.028  12.503
  240SOL    HW2 3720   2.694   3.926  12.570
  241SOL     OW 3721   0.179   4.266  12.550
  241SOL    HW1 3722   0.185   4.203  12.628
  241SOL    HW2 3723   0.263   4.260  12.496
  242SOL     OW 3724   2.699   5.687  15.689
  242SOL    HW1 3725   2.759   5.686  15.609
  242SOL    HW2 3726   2.604   5.679  15.659
  243SOL     OW 3727   1.102   0.058  14.554
  243SOL    HW1 3728   1.180  -0.000  14.576
  243SOL    HW2 3729   1.022   0.000  14.536
  244SOL     OW 3730   2.205   6.025  15.119
  244SOL    HW1 3731   2.205   6.055  15.023
  244SOL    HW2 3732   2.115   6.041  15.159
  245SOL     OW 3733   1.084   4.075  13.144
  245SOL    HW1 3734   1.133   3.991  13.121
  245SOL    HW2 3735   0.994   4.052  13.181
  246SOL     OW 3736   3.434   1.739  13.178
  246SOL    HW1 3737   3.499   1.792  13.125
  246SOL    HW2 3738   3.457   1.745  13.275
  247SOL     OW 3739   3.645   6.017  13.092
  247SOL    HW1 3740   3.565   6.001  13.035
  247SOL    HW2 3741   3.728   6.003  13.038
  248SOL     OW 3742   5.197   2.227  14.670
  248SOL    HW1 3743   5.099   2.243  14.671
  248SOL    HW2 3744   5.223   2.183  14.584
  249SOL     OW 3745   4.608   1.922  14.797
  249SOL    HW1 3746   4.511   1.942  14.783
  249SOL    HW2 3747   4.628   1.924  14.895
  250SOL     OW 3748   0.581   1.148  14.032
  250SOL    HW1 3749   0.628   1.236  14.032
  250SOL    HW2 3750   0.482   1.162  14.030
  251SOL     OW 3751   5.448   5.033  15.814
  251SOL    HW1 3752   5.358   5.004  15.846
  251SOL    HW2 3753   5.473   4.981  15.733
  252SOL     OW 3754   1.548   2.303  15.282
  252SOL    HW1 3755   1.507   2.221  15.321
  252SOL    HW2 3756   1.638   2.280  15.245
  253SOL     OW 3757   2.554   3.662  11.383
  253SOL    HW1 3758   2.571   3.647  11.286
  253SOL    HW2 3759   2.565   3.575  11.432
  254SOL     OW 3760   5.030   2.184  12.387
  254SOL    HW1 3761   4.962   2.174  12.460
  254SOL    HW2 3762   5.029   2.103  12.328
  255SOL     OW 3763   3.537   2.126  14.356
  255SOL    HW1 3764   3.596   2.081  14.423
  255SOL    HW2 3765   3.594   2.170  14.285
  256SOL     OW 3766   1.821   0.632  11.706
  256SOL    HW1 3767   1.824   0.731  11.723
  256SOL    HW2 3768   1.913   0.596  11.707
  257SOL     OW 3769   1.480   6.056  12.962
  257SOL    HW1 3770   1.572   6.048  13.000
  257SOL    HW2 3771   1.457   6.153  12.951
  258SOL     OW 3772   5.431   0.569  12.136
  258SOL    HW1 3773   5.466   0.571  12.230
  258SOL    HW2 3774   5.503   0.599  12.073
  259SOL     OW 3775   3.351   4.834  11.176
  259SOL    HW1 3776   3.290   4.786  11.240
  259SOL    HW2 3777   3.365   4.777  11.095
  260SOL     OW 3778   5.046   6.224  11.706
  260SOL    HW1 3779   5.144   6.235  11.686
  260SOL    HW2 3780   4.993   6.276  11.640
  261SOL     OW 3781   1.605   3.741  11.408
  261SOL    HW1 3782   1.680   3.678  11.389
  261SOL    HW2 3783   1.520   3.690  11.420
  262SOL     OW 3784   1.744   5.765  12.951
  262SOL    HW1 3785   1.806   5.810  12.887
  262SOL    HW2 3786   1.786   5.681  12.986
  263SOL     OW 3787   2.960   0.392  14.206
  263SOL    HW1 3788   2.924   0.478  14.244
  263SOL    HW2 3789   3.051   0.408  14.168
  264SOL     OW 3790   2.913   0.684  12.983
  264SOL    HW1 3791   2.960   0.758  12.935
  264SOL    HW2 3792   2.974   0.643  13.050
  265SOL     OW 3793   2.618   5.894  14.687
  265SOL    HW1 3794   2.572   5.980  14.706
  265SOL    HW2 3795   2.717   5.910  14.682
  266SOL     OW 3796   2.524   2.395  13.723
  266SOL    HW1 3797   2.477   2.353  13.800
  266SOL    HW2 3798   2.622   2.373  13.729
  267SOL     OW 3799   2.791   2.833  13.529
  267SOL    HW1 3800   2.883   2.861  13.558
  267SOL    HW2 3801   2.723   2.885  13.581
  268SOL     OW 3802   5.527   0.960  14.518
  268SOL    HW1 3803   5.514   1.035  14.584
  268SOL    HW2 3804   5.580   0.993  14.440
  269SOL     OW 3805   6.089   0.316  12.987
  269SOL    HW1 3806   6.183   0.322  12.953
  269SOL    HW2 3807   6.059   0.406  13.018
  270SOL     OW 3808   1.798   3.121  12.553
  270SOL    HW1 3809   1.815   3.205  12.603
  270SOL    HW2 3810   1.884   3.087  12.514
  271SOL     OW 3811   0.183   6.064  13.025
  271SOL    HW1 3812   0.263   6.121  13.037
  271SOL    HW2 3813   0.100   6.119  13.036
  272SOL     OW 3814   0.386   5.825  13.580
  272SOL    HW1 3815   0.370   5.923  13.575
  272SOL    HW2 3816   0.299   5.777  13.583
  273SOL     OW 3817   4.386   5.077  15.247
  273SOL    HW1 3818   4.413   5.010  15.179
  273SOL    HW2 3819   4.289   5.100  15.234
  274SOL     OW 3820   0.811   5.496  15.653
  274SOL    HW1 3821   0.857   5.407  15.654
  274SOL    HW2 3822   0.870   5.565  15.695
  275SOL     OW 3823   1.388   0.357  12.657
  275SOL    HW1 3824   1.349   0.388  12.744
  275SOL    HW2 3825   1.407   0.436  12.599
  276SOL     OW 3826   4.674   3.673  13.047
  276SOL    HW1 3827   4.659   3.682  13.146
  276SOL    HW2 3828   4.598   3.622  13.007
  277SOL     OW 3829   2.867   0.239  14.645
  277SOL    HW1 3830   2.807   0.218  14.568
  277SOL    HW2 3831   2.963   0.228  14.616
  278SOL     OW 3832   1.598   3.411  12.605
  278SOL    HW1 3833   1.638   3.498  12.632
  278SOL    HW2 3834   1.559   3.419  12.513
  279SOL     OW 3835   0.522   5.247  15.940
  279SOL    HW1 3836   0.540   5.344  15.929
  279SOL    HW2 3837   0.607   5.195  15.926
  280SOL     OW 3838   0.074   3.067  12.808
  280SOL    HW1 3839   0.022   3.011  12.744
  280SOL    HW2 3840   0.158   3.099  12.764
  281SOL     OW 3841   1.159   0.968  13.673
  281SOL    HW1 3842   1.246   0.936  13.710
  281SOL    HW2 3843   1.114   1.028  13.739
  282SOL     OW 3844   4.256   4.416  12.316
  282SOL    HW1 3845   4.335   4.373  12.272
  282SOL    HW2 3846   4.212   4.350  12.377
  283SOL     OW 3847   3.590   2.715  14.666
  283SOL    HW1 3848   3.542   2.656  14.730
  283SOL    HW2 3849   3.524   2.756  14.603
  284SOL     OW 3850   2.031   3.080  11.810
  284SOL    HW1 3851   2.088   3.147  11.858
  284SOL    HW2 3852   1.954   3.054  11.868
  285SOL     OW 3853   2.632   1.768  15.896
  285SOL    HW1 3854   2.643   1.866  15.883
  285SOL    HW2 3855   2.553   1.736  15.843
  286SOL     OW 3856   0.131   1.474  13.481
  286SOL    HW1 3857   0.074   1.497  13.402
  286SOL    HW2 3858   0.081   1.498  13.565
  287SOL     OW 3859   1.299   4.221  11.507
  287SOL    HW1 3860   1.391   4.256  11.488
  287SOL    HW2 3861   1.230   4.281  11.466
  288SOL     OW 3862   0.473   5.170  11.571
  288SOL    HW1 3863   0.444   5.258  11.533
  288SOL    HW2 3864   0.400   5.102  11.557
  289SOL     OW 3865   0.683   1.759  14.657
  289SOL    HW1 3866   0.781   1.770  14.672
  289SOL    HW2 3867   0.660   1.787  14.564
  290SOL     OW 3868   1.598   4.758  15.794
  290SOL    HW1 3869   1.619   4.850  15.826
  290SOL    HW2 3870   1.673   4.725  15.736
  291SOL     OW 3871   0.640   6.010  12.885
  291SOL    HW1 3872   0.660   6.026  12.982
  291SOL    HW2 3873   0.725   6.006  12.833
  292SOL     OW 3874   5.958   3.155  12.705
  292SOL    HW1 3875   5.959   3.255  12.696
  292SOL    HW2 3876   6.049   3.123  12.732
  293SOL     OW 3877   2.254   2.735  14.207
  293SOL    HW1 3878   2.352   2.731  14.188
  293SOL    HW2 3879   2.226   2.651  14.252
  294SOL     OW 3880   1.165   4.726  11.684
  294SOL    HW1 3881   1.106   4.799  11.720
  294SOL    HW2 3882   1.118   4.681  11.607
  295SOL     OW 3883   6.212   4.026  12.643
  295SOL    HW1 3884   6.310   4.029  12.622
  295SOL    HW2 3885   6.172   3.943  12.604
  296SOL     OW 3886   0.273   4.745  14.571
  296SOL    HW1 3887   0.368   4.715  14.578
  296SOL    HW2 3888   0.263   4.811  14.496
  297SOL     OW 3889   4.661   2.878  13.970
  297SOL    HW1 3890   4.610   2.961  13.991
  297SOL    HW2 3891   4.637   2.806  14.035
  298SOL     OW 3892   4.391   5.766  13.767
  298SOL    HW1 3893   4.312   5.705  13.769
  298SOL    HW2 3894   4.361   5.861  13.765
  299SOL     OW 3895   2.576   4.302  15.436
  299SOL    HW1 3896   2.666   4.259  15.434
  299SOL    HW2 3897   2.533   4.295  15.345
  300SOL     OW 3898   3.448   3.398  13.933
  300SOL    HW1 3899   3.357   3.425  13.965
  300SOL    HW2 3900   3.515   3.466  13.964
  301SOL     OW 3901   0.143   4.758  13.515
  301SOL    HW1 3902   0.096   4.835  13.559
  301SOL    HW2 3903   0.077   4.705  13.462
  302SOL     OW 3904   0.164   4.484  11.210
  302SOL    HW1 3905   0.222   4.477  11.130
  302SOL    HW2 3906   0.191   4.416  11.278
  303SOL     OW 3907   2.929   4.721  13.656
  303SOL    HW1 3908   2.830   4.716  13.670
  303SOL    HW2 3909   2.956   4.817  13.645
  304SOL     OW 3910   4.188   1.791  12.472
  304SOL    HW1 3911   4.281   1.828  12.472
  304SOL    HW2 3912   4.122   1.867  12.471
  305SOL     OW 3913   0.373   0.168  13.222
  305SOL    HW1 3914   0.400   0.194  13.130
  305SOL    HW2 3915   0.455   0.149  13.277
  306SOL     OW 3916   5.712   5.186  14.119
  306SOL    HW1 3917   5.753   5.256  14.177
  306SOL    HW2 3918   5.784   5.133  14.074
  307SOL     OW 3919   1.565   4.424  15.894
  307SOL    HW1 3920   1.595   4.518  15.875
  307SOL    HW2 3921   1.642   4.362  15.883
  308SOL     OW 3922   5.670   1.519  15.925
  308SOL    HW1 3923   5.740   1.571  15.875
  308SOL    HW2 3924   5.634   1.574  16.000
  309SOL     OW 3925   1.110   5.212  11.822
  309SOL    HW1 3926   1.113   5.172  11.913
  309SOL    HW2 3927   1.088   5.310  11.829
  310SOL     OW 3928   4.539   2.749  13.795
  310SOL    HW1 3929   4.585   2.664  13.768
  310SOL    HW2 3930   4.453   2.757  13.744
  311SOL     OW 3931   4.262   2.412  12.335
  311SOL    HW1 3932   4.179   2.425  12.388
  311SOL    HW2 3933   4.246   2.344  12.263
  312SOL     OW 3934   4.583   6.058  14.868
  312SOL    HW1 3935   4.574   6.131  14.800
  312SOL    HW2 3936   4.660   5.999  14.842
  313SOL     OW 3937   4.717   4.391  14.056
  313SOL    HW1 3938   4.701   4.452  14.133
  313SOL    HW2 3939   4.713   4.442  13.971
  314SOL     OW 3940   1.459   1.509  14.844
  314SOL    HW1 3941   1.471   1.559  14.759
  314SOL    HW2 3942   1.531   1.535  14.909
  315SOL     OW 3943   2.173   5.566  15.117
  315SOL    HW1 3944   2.261   5.518  15.115
  315SOL    HW2 3945   2.105   5.510  15.165
  316SOL     OW 3946   5.202   5.533  13.437
  316SOL    HW1 3947   5.112   5.515  13.399
  316SOL    HW2 3948   5.194   5.571  13.529
  317SOL     OW 3949   0.830   5.588  14.866
  317SOL    HW1 3950   0.770   5.608  14.944
  317SOL    HW2 3951   0.826   5.490  14.846
  318SOL     OW 3952   3.762   5.948  13.822
  318SOL    HW1 3953   3.682   5.899  13.857
  318SOL    HW2 3954   3.844   5.892  13.837
  319SOL     OW 3955   0.945   3.362  12.376
  319SOL    HW1 3956   1.020   3.404  12.325
  319SOL    HW2 3957   0.982   3.314  12.456
  320SOL     OW 3958   4.569   5.153  15.401
  320SOL    HW1 3959   4.609   5.103  15.478
  320SOL    HW2 3960   4.637   5.214  15.361
  321SOL     OW 3961   4.346   3.694  12.605
  321SOL    HW1 3962   4.325   3.601  12.637
  321SOL    HW2 3963   4.435   3.693  12.558
  322SOL     OW 3964   3.725   0.465  13.955
  322SOL    HW1 3965   3.671   0.383  13.974
  322SOL    HW2 3966   3.781   0.450  13.874
  323SOL     OW 3967   4.727   2.531  13.490
  323SOL    HW1 3968   4.646   2.520  13.548
  323SOL    HW2 3969   4.700   2.522  13.394
  324SOL     OW 3970   0.756   2.522  13.809
  324SOL    HW1 3971   0.784   2.618  13.820
  324SOL    HW2 3972   0.660   2.511  13.835
  325SOL     OW 3973   4.280   0.615  12.190
  325SOL    HW1 3974   4.265   0.711  12.212
  325SOL    HW2 3975   4.364   0.606  12.136
  326SOL     OW 3976   0.456   1.853  11.778
  326SOL    HW1 3977   0.380   1.810  11.728
  326SOL    HW2 3978   0.496   1.787  11.841
  327SOL     OW 3979   4.107   2.830  15.330
  327SOL    HW1 3980   4.174   2.780  15.383
  327SOL    HW2 3981   4.051   2.766  15.277
  328SOL     OW 3982   4.139   3.356  15.049
  328SOL    HW1 3983   4.168   3.447  15.080
  328SOL    HW2 3984   4.042   3.344  15.071
  329SOL     OW 3985   6.162   0.983  15.163
  329SOL    HW1 3986   6.069   1.020  15.175
  329SOL    HW2 3987   6.229   1.054  15.183
  330SOL     OW 3988   1.286   5.812  14.121
  330SOL    HW1 3989   1.205   5.860  14.155
  330SOL    HW2 3990   1.343   5.875  14.069
  331SOL     OW 3991   1.862   1.730  11.394
  331SOL    HW1 3992   1.819   1.640  11.380
  331SOL    HW2 3993   1.793   1.801  11.380
  332SOL     OW 3994   5.862   0.070  13.409
  332SOL    HW1 3995   5.877   0.169  13.412
  332SOL    HW2 3996   5.916   0.031  13.334
  333SOL     OW 3997   5.198   5.699  12.185
  333SOL    HW1 3998   5.259   5.622  12.203
  333SOL    HW2 3999   5.251   5.778  12.154
  334SOL     OW 4000   4.760   3.548  11.705
  334SOL    HW1 4001   4.765   3.578  11.800
  334SOL    HW2 4002   4.664   3.544  11.675
  335SOL     OW 4003   2.004   4.093  15.267
  335SOL    HW1 4004   2.101   4.066  15.270
  335SOL    HW2 4005   1.997   4.193  15.270
  336SOL     OW 4006   3.474   5.029  13.005
  336SOL    HW1 4007   3.549   4.964  13.017
  336SOL    HW2 4008   3.387   4.980  13.009
  337SOL     OW 4009   6.004   1.287  15.264
  337SOL    HW1 4010   6.099   1.262  15.247
  337SOL    HW2 4011   5.957   1.299  15.177
  338SOL     OW 4012   3.357   1.810  11.375
  338SOL    HW1 4013   3.424   1.885  11.378
  338SOL    HW2 4014   3.266   1.847  11.357
  339SOL     OW 4015   1.678   3.924  15.815
  339SOL    HW1 4016   1.597   3.865  15.807
  339SOL    HW2 4017   1.695   3.943  15.911
  340SOL     OW 4018   4.082   1.408  12.586
  340SOL    HW1 4019   4.133   1.493  12.592
  340SOL    HW2 4020   4.136   1.340  12.536
  341SOL     OW 4021   6.024   5.075  15.283
  341SOL    HW1 4022   6.052   5.024  15.364
  341SOL    HW2 4023   6.069   5.164  15.282
  342SOL     OW 4024   0.900   0.461  13.782
  342SOL    HW1 4025   0.971   0.491  13.719
  342SOL    HW2 4026   0.925   0.487  13.875
  343SOL     OW 4027   4.548   5.184  13.483
  343SOL    HW1 4028   4.487   5.104  13.483
  343SOL    HW2 4029   4.643   5.154  13.486
  344SOL     OW 4030   4.891   3.808  11.530
  344SOL    HW1 4031   4.979   3.761  11.538
  344SOL    HW2 4032   4.849   3.786  11.442
  345SOL     OW 4033   5.260   5.522  14.049
  345SOL    HW1 4034   5.207   5.602  14.019
  345SOL    HW2 4035   5.199   5.445  14.065
  346SOL     OW 4036   5.264   6.068  12.507
  346SOL    HW1 4037   5.222   6.153  12.478
  346SOL    HW2 4038   5.200   6.016  12.564
  347SOL     OW 4039   5.048   3.043  15.917
  347SOL    HW1 4040   5.025   2.992  16.000
  347SOL    HW2 4041   5.125   2.998  15.870
  348SOL     OW 4042   0.181   1.366  15.888
  348SOL    HW1 4043   0.232   1.443  15.925
  348SOL    HW2 4044   0.084   1.377  15.909
  349SOL     OW 4045   0.152   4.723  11.415
  349SOL    HW1 4046   0.221   4.650  11.416
  349SOL    HW2 4047   0.082   4.704  11.483
  350SOL     OW 4048   6.239   4.028  12.318
  350SOL    HW1 4049   6.205   4.102  12.259
  350SOL    HW2 4050   6.180   4.020  12.398
  351SOL     OW 4051   1.582   4.961  12.974
  351SOL    HW1 4052   1.578   5.044  12.918
  351SOL    HW2 4053   1.624   4.887  12.921
  352SOL     OW 4054   2.217   1.349  14.068
  352SOL    HW1 4055   2.138   1.309  14.022
  352SOL    HW2 4056   2.229   1.444  14.037
  353SOL     OW 4057   6.140   3.268  14.561
  353SOL    HW1 4058   6.192   3.353  14.550
  353SOL    HW2 4059   6.202   3.191  14.568
  354SOL     OW 4060   3.279   3.862  15.884
  354SOL    HW1 4061   3.378   3.874  15.894
  354SOL    HW2 4062   3.241   3.821  15.967
  355SOL     OW 4063   0.036   0.620  14.475
  355SOL    HW1 4064   0.001   0.526  14.480
  355SOL    HW2 4065   0.136   0.618  14.464
  356SOL     OW 4066   2.100   3.922  14.104
  356SOL    HW1 4067   2.131   3.845  14.048
  356SOL    HW2 4068   2.031   3.974  14.053
  357SOL     OW 4069   5.038   1.478  14.538
  357SOL    HW1 4070   5.054   1.382  14.514
  357SOL    HW2 4071   4.983   1.521  14.466
  358SOL     OW 4072   2.518   4.137  15.598
  358SOL    HW1 4073   2.558   4.063  15.654
  358SOL    HW2 4074   2.420   4.123  15.590
  359SOL     OW 4075   6.218   2.204  15.844
  359SOL    HW1 4076   6.224   2.184  15.746
  359SOL    HW2 4077   6.310   2.208  15.883
  360SOL     OW 4078   4.225   4.526  15.752
  360SOL    HW1 4079   4.264   4.506  15.842
  360SOL    HW2 4080   4.199   4.441  15.707
  361SOL     OW 4081   0.738   5.244  15.060
  361SOL    HW1 4082   0.830   5.277  15.040
  361SOL    HW2 4083   0.672   5.294  15.004
  362SOL     OW 4084   0.116   4.583  12.792
  362SOL    HW1 4085   0.143   4.487  12.793
  362SOL    HW2 4086   0.016   4.590  12.792
  363SOL     OW 4087   0.220   4.081  11.489
  363SOL    HW1 4088   0.144   4.031  11.447
  363SOL    HW2 4089   0.268   4.021  11.553
  364SOL     OW 4090   2.649   3.693  15.469
  364SOL    HW1 4091   2.549   3.691  15.465
  364SOL    HW2 4092   2.684   3.601  15.452
  365SOL     OW 4093   1.516   2.021  12.141
  365SOL    HW1 4094   1.552   2.048  12.052
  365SOL    HW2 4095   1.511   2.101  12.200
  366SOL     OW 4096   2.958   5.930  12.260
  366SOL    HW1 4097   2.909   5.853  12.302
  366SOL    HW2 4098   3.046   5.898  12.225
  367SOL     OW 4099   4.365   4.519  14.569
  367SOL    HW1 4100   4.403   4.510  14.661
  367SOL    HW2 4101   4.274   4.477  14.566
  368SOL     OW 4102   0.097   1.749  12.041
  368SOL    HW1 4103   0.064   1.802  12.119
  368SOL    HW2 4104   0.191   1.774  12.020
  369SOL     OW 4105   5.243   0.483  14.701
  369SOL    HW1 4106   5.186   0.565  14.707
  369SOL    HW2 4107   5.186   0.403  14.682
  370SOL     OW 4108   5.046   1.911  14.523
  370SOL    HW1 4109   4.998   1.885  14.607
  370SOL    HW2 4110   4.979   1.941  14.455
  371SOL     OW 4111   0.344   3.887  13.302
  371SOL    HW1 4112   0.269   3.943  13.339
  371SOL    HW2 4113   0.331   3.876  13.204
  372SOL     OW 4114   4.883   5.612  12.307
  372SOL    HW1 4115   4.805   5.666  12.276
  372SOL    HW2 4116   4.873   5.518  12.274
  373SOL     OW 4117   3.512   2.839  13.968
  373SOL    HW1 4118   3.428   2.785  13.958
  373SOL    HW2 4119   3.559   2.846  13.880
  374SOL     OW 4120   3.497   3.978  15.439
  374SOL    HW1 4121   3.403   3.974  15.473
  374SOL    HW2 4122   3.526   4.074  15.436
  375SOL     OW 4123   2.580   0.327  14.777
  375SOL    HW1 4124   2.618   0.417  14.756
  375SOL    HW2 4125   2.648   0.273  14.827
  376SOL     OW 4126   4.154   2.251  13.831
  376SOL    HW1 4127   4.203   2.172  13.868
  376SOL    HW2 4128   4.219   2.319  13.798
  377SOL     OW 4129   5.656   2.636  14.868
  377SOL    HW1 4130   5.742   2.637  14.920
  377SOL    HW2 4131   5.597   2.711  14.901
  378SOL     OW 4132   1.798   0.469  14.748
  378SOL    HW1 4133   1.832   0.426  14.664
  378SOL    HW2 4134   1.715   0.521  14.727
  379SOL     OW 4135   3.033   5.709  15.242
  379SOL    HW1 4136   3.007   5.778  15.309
  379SOL    HW2 4137   2.958   5.644  15.230
  380SOL     OW 4138   4.683   1.322  14.278
  380SOL    HW1 4139   4.682   1.289  14.183
  380SOL    HW2 4140   4.589   1.323  14.314
  381SOL     OW 4141   4.223   6.127  14.270
  381SOL    HW1 4142   4.142   6.169  14.312
  381SOL    HW2 4143   4.195   6.071  14.192
  382SOL     OW 4144   0.000   5.774  14.537
  382SOL    HW1 4145   0.032   5.825  14.617
  382SOL    HW2 4146   0.034   5.818  14.454
  383SOL     OW 4147   0.522   2.228  12.533
  383SOL    HW1 4148   0.621   2.244  12.539
  383SOL    HW2 4149   0.473   2.312  12.557
  384SOL     OW 4150   0.306   2.239  13.688
  384SOL    HW1 4151   0.365   2.290  13.750
  384SOL    HW2 4152   0.274   2.156  13.733
  385SOL     OW 4153   1.324   4.635  13.075
  385SOL    HW1 4154   1.309   4.585  13.160
  385SOL    HW2 4155   1.236   4.668  13.040
  386SOL     OW 4156   4.866   5.014  15.087
  386SOL    HW1 4157   4.774   5.033  15.052
  386SOL    HW2 4158   4.873   5.048  15.181
  387SOL     OW 4159   2.641   1.668  14.011
  387SOL    HW1 4160   2.709   1.616  13.960
  387SOL    HW2 4161   2.651   1.765  13.991
  388SOL     OW 4162   5.240   0.145  15.736
  388SOL    HW1 4163   5.329   0.186  15.715
  388SOL    HW2 4164   5.170   0.216  15.738
  389SOL     OW 4165   0.844   4.039  11.850
  389SOL    HW1 4166   0.818   4.070  11.941
  389SOL    HW2 4167   0.943   4.030  11.845
  390SOL     OW 4168   0.500   4.958  14.570
  390SOL    HW1 4169   0.479   4.908  14.654
  390SOL    HW2 4170   0.545   4.897  14.505
  391SOL     OW 4171   5.132   3.013  12.259
  391SOL    HW1 4172   5.204   3.021  12.191
  391SOL    HW2 4173   5.152   2.936  12.320
  392SOL     OW 4174   1.783   3.121  15.854
  392SOL    HW1 4175   1.866   3.170  15.827
  392SOL    HW2 4176   1.703   3.176  15.830
  393SOL     OW 4177   2.301   0.150  14.412
  393SOL    HW1 4178   2.233   0.217  14.382
  393SOL    HW2 4179   2.256   0.061  14.425
  394SOL     OW 4180   2.236   4.214  11.733
  394SOL    HW1 4181   2.148   4.256  11.712
  394SOL    HW2 4182   2.233   4.117  11.712
  395SOL     OW 4183   5.257   1.325  14.180
  395SOL    HW1 4184   5.318   1.257  14.138
  395SOL    HW2 4185   5.194   1.279  14.243
  396SOL     OW 4186   5.061   2.500  14.805
  396SOL    HW1 4187   5.155   2.465  14.811
  396SOL    HW2 4188   5.058   2.575  14.739
  397SOL     OW 4189   0.135   1.089  11.906
  397SOL    HW1 4190   0.101   1.006  11.861
  397SOL    HW2 4191   0.205   1.065  11.973
  398SOL     OW 4192   0.340   4.885  11.312
  398SOL    HW1 4193   0.242   4.904  11.319
  398SOL    HW2 4194   0.392   4.967  11.339
  399SOL     OW 4195   2.530   1.543  13.263
  399SOL    HW1 4196   2.493   1.451  13.253
  399SOL    HW2 4197   2.626   1.544  13.234
  400SOL     OW 4198   1.941   4.357  12.388
  400SOL    HW1 4199   1.938   4.266  12.347
  400SOL    HW2 4200   1.853   4.378  12.430
  401SOL     OW 4201   2.019   4.011  14.745
  401SOL    HW1 4202   2.056   4.104  14.734
  401SOL    HW2 4203   2.076   3.947  14.694
  402SOL     OW 4204   0.756   1.855  15.342
  402SOL    HW1 4205   0.731   1.782  15.405
  402SOL    HW2 4206   0.840   1.831  15.294
  403SOL     OW 4207   1.438   0.627  14.217
  403SOL    HW1 4208   1.439   0.558  14.144
  403SOL    HW2 4209   1.344   0.660  14.230
  404SOL     OW 4210   0.720   2.567  11.715
  404SOL    HW1 4211   0.768   2.517  11.787
  404SOL    HW2 4212   0.621   2.553  11.726
  405SOL     OW 4213   2.703   4.228  12.244
  405SOL    HW1 4214   2.756   4.247  12.326
  405SOL    HW2 4215   2.716   4.301  12.177
  406SOL     OW 4216   2.680   0.223  13.233
  406SOL    HW1 4217   2.582   0.226  13.214
  406SOL    HW2 4218   2.715   0.133  13.207
  407SOL     OW 4219   0.269   3.897  15.649
  407SOL    HW1 4220   0.326   3.878  15.569
  407SOL    HW2 4221   0.263   3.815  15.706
  408SOL     OW 4222   3.517   1.645  11.840
  408SOL    HW1 4223   3.533   1.627  11.937
  408SOL    HW2 4224   3.517   1.559  11.789
  409SOL     OW 4225   1.096   1.901  15.453
  409SOL    HW1 4226   1.045   1.819  15.479
  409SOL    HW2 4227   1.033   1.977  15.438
  410SOL     OW 4228   3.191   3.950  14.534
  410SOL    HW1 4229   3.095   3.925  14.520
  410SOL    HW2 4230   3.195   4.025  14.601
  411SOL     OW 4231   3.178   0.405  11.840
  411SOL    HW1 4232   3.275   0.380  11.833
  411SOL    HW2 4233   3.123   0.323  11.846
  412SOL     OW 4234   0.530   5.058  13.992
  412SOL    HW1 4235   0.522   4.959  13.984
  412SOL    HW2 4236   0.627   5.084  13.992
  413SOL     OW 4237   0.018   3.263  14.271
  413SOL    HW1 4238   0.068   3.325  14.210
  413SOL    HW2 4239   0.067   3.257  14.358
  414SOL     OW 4240   0.312   5.130  14.143
  414SOL    HW1 4241   0.249   5.108  14.217
  414SOL    HW2 4242   0.357   5.217  14.163
  415SOL     OW 4243   5.458   3.240  12.150
  415SOL    HW1 4244   5.447   3.311  12.081
  415SOL    HW2 4245   5.372   3.189  12.159
  416SOL     OW 4246   2.305   3.849  14.629
  416SOL    HW1 4247   2.374   3.920  14.647
  416SOL    HW2 4248   2.281   3.805  14.715
  417SOL     OW 4249   3.898   1.675  11.568
  417SOL    HW1 4250   3.981   1.619  11.560
  417SOL    HW2 4251   3.839   1.636  11.639
  418SOL     OW 4252   1.030   1.626  12.198
  418SOL    HW1 4253   1.016   1.531  12.169
  418SOL    HW2 4254   1.127   1.642  12.214
  419SOL     OW 4255   5.518   5.349  14.820
  419SOL    HW1 4256   5.539   5.293  14.901
  419SOL    HW2 4257   5.428   5.324  14.785
  420SOL     OW 4258   6.237   1.304  14.219
  420SOL    HW1 4259   6.262   1.371  14.290
  420SOL    HW2 4260   6.310   1.236  14.210
  421SOL     OW 4261   2.929   1.666  14.605
  421SOL    HW1 4262   2.872   1.584  14.607
  421SOL    HW2 4263   2.900   1.729  14.677
  422SOL     OW 4264   5.424   1.989  15.546
  422SOL    HW1 4265   5.494   2.059  15.558
  422SOL    HW2 4266   5.466   1.903  15.517
  423SOL     OW 4267   2.515   6.180  15.101
  423SOL    HW1 4268   2.420   6.148  15.110
  423SOL    HW2 4269   2.577   6.102  15.105
  424SOL     OW 4270   4.208   2.792  11.898
  424SOL    HW1 4271   4.269   2.713  11.898
  424SOL    HW2 4272   4.113   2.761  11.898
  425SOL     OW 4273   4.606   1.066  14.465
  425SOL    HW1 4274   4.583   1.161  14.489
  425SOL    HW2 4275   4.702   1.049  14.486
  426SOL     OW 4276   5.348   3.209  12.750
  426SOL    HW1 4277   5.448   3.214  12.761
  426SOL    HW2 4278   5.321   3.115  12.733
  427SOL     OW 4279   3.035   5.279  14.112
  427SOL    HW1 4280   3.125   5.254  14.075
  427SOL    HW2 4281   3.039   5.372  14.149
  428SOL     OW 4282   2.247   2.163  15.565
  428SOL    HW1 4283   2.316   2.224  15.605
  428SOL    HW2 4284   2.243   2.079  15.618
  429SOL     OW 4285   2.369   1.911  15.347
  429SOL    HW1 4286   2.277   1.926  15.309
  429SOL    HW2 4287   2.362   1.883  15.442
  430SOL     OW 4288   1.999   5.257  11.500
  430SOL    HW1 4289   2.064   5.182  11.497
  430SOL    HW2 4290   1.906   5.221  11.503
  431SOL     OW 4291   3.714   3.819  13.606
  431SOL    HW1 4292   3.725   3.720  13.608
  431SOL    HW2 4293   3.616   3.842  13.604
  432SOL     OW 4294   0.752   0.878  11.570
  432SOL    HW1 4295   0.734   0.781  11.553
  432SOL    HW2 4296   0.724   0.932  11.491
  433SOL     OW 4297   3.734   3.805  15.581
  433SOL    HW1 4298   3.783   3.736  15.634
  433SOL    HW2 4299   3.798   3.877  15.552
  434SOL     OW 4300   5.239   4.733  11.070
  434SOL    HW1 4301   5.267   4.766  11.160
  434SOL    HW2 4302   5.170   4.661  11.081
  435SOL     OW 4303   4.600   5.842  11.426
  435SOL    HW1 4304   4.580   5.910  11.496
  435SOL    HW2 4305   4.642   5.886  11.347
  436SOL     OW 4306   5.961   1.249  15.726
  436SOL    HW1 4307   6.019   1.230  15.805
  436SOL    HW2 4308   5.909   1.168  15.701
  437SOL     OW 4309   3.864   3.103  13.493
  437SOL    HW1 4310   3.868   3.122  13.395
  437SOL    HW2 4311   3.773   3.069  13.516
  438SOL     OW 4312   4.629   4.593  12.840
  438SOL    HW1 4313   4.601   4.686  12.865
  438SOL    HW2 4314   4.549   4.534  12.835
  439SOL     OW 4315   3.343   5.183  14.114
  439SOL    HW1 4316   3.435   5.178  14.153
  439SOL    HW2 4317   3.317   5.094  14.077
  440SOL     OW 4318   4.840   4.861  14.433
  440SOL    HW1 4319   4.857   4.910  14.348
  440SOL    HW2 4320   4.772   4.910  14.488
  441SOL     OW 4321   3.622   2.531  12.876
  441SOL    HW1 4322   3.711   2.486  12.878
  441SOL    HW2 4323   3.635   2.630  12.875
  442SOL     OW 4324   0.778   4.578  14.070
  442SOL    HW1 4325   0.703   4.513  14.058
  442SOL    HW2 4326   0.760   4.661  14.017
  443SOL     OW 4327   5.230   4.475  14.323
  443SOL    HW1 4328   5.231   4.404  14.253
  443SOL    HW2 4329   5.309   4.463  14.384
  444SOL     OW 4330   1.618   2.299  13.793
  444SOL    HW1 4331   1.575   2.368  13.735
  444SOL    HW2 4332   1.562   2.216  13.794
  445SOL     OW 4333   1.369   3.206  14.343
  445SOL    HW1 4334   1.361   3.107  14.330
  445SOL    HW2 4335   1.342   3.253  14.259
  446SOL     OW 4336   0.290   5.576  14.841
  446SOL    HW1 4337   0.205   5.591  14.791
  446SOL    HW2 4338   0.332   5.665  14.861
  447SOL     OW 4339   0.327   2.783  14.495
  447SOL    HW1 4340   0.356   2.875  14.467
  447SOL    HW2 4341   0.286   2.736  14.417
  448SOL     OW 4342   3.933   5.494  12.311
  448SOL    HW1 4343   4.020   5.471  12.268
  448SOL    HW2 4344   3.886   5.564  12.258
  449SOL     OW 4345   1.618   4.249  14.193
  449SOL    HW1 4346   1.568   4.165  14.216
  449SOL    HW2 4347   1.697   4.226  14.137
  450SOL     OW 4348   3.954   0.280  12.832
  450SOL    HW1 4349   3.907   0.208  12.780
  450SOL    HW2 4350   3.977   0.245  12.923
  451SOL     OW 4351   3.460   3.252  14.139
  451SOL    HW1 4352   3.452   3.332  14.199
  451SOL    HW2 4353   3.369   3.224  14.108
  452SOL     OW 4354   5.379   0.524  15.660
  452SOL    HW1 4355   5.356   0.433  15.694
  452SOL    HW2 4356   5.295   0.572  15.634
  453SOL     OW 4357   6.081   0.131  11.427
  453SOL    HW1 4358   6.031   0.052  11.461
  453SOL    HW2 4359   6.179   0.110  11.422
  454SOL     OW 4360   5.127   3.779  12.141
  454SOL    HW1 4361   5.194   3.730  12.086
  454SOL    HW2 4362   5.135   3.751  12.237
  455SOL     OW 4363   1.292   1.697  15.829
  455SOL    HW1 4364   1.320   1.791  15.852
  455SOL    HW2 4365   1.192   1.692  15.832
  456SOL     OW 4366   4.358   5.372  13.219
  456SOL    HW1 4367   4.341   5.287  13.268
  456SOL    HW2 4368   4.457   5.384  13.207
  457SOL     OW 4369   0.043   6.050  12.206
  457SOL    HW1 4370   0.087   6.127  12.159
  457SOL    HW2 4371   0.111   5.983  12.233
  458SOL     OW 4372   2.818   6.077  12.169
  458SOL    HW1 4373   2.842   6.107  12.076
  458SOL    HW2 4374   2.790   6.157  12.223
  459SOL     OW 4375   2.680   0.471  11.624
  459SOL    HW1 4376   2.717   0.556  11.586
  459SOL    HW2 4377   2.583   0.484  11.645
  460SOL     OW 4378   5.741   5.697  11.791
  460SOL    HW1 4379   5.821   5.749  11.819
  460SOL    HW2 4380   5.697   5.658  11.872
  461SOL     OW 4381   5.099   0.411  13.508
  461SOL    HW1 4382   5.104   0.348  13.586
  461SOL    HW2 4383   5.149   0.371  13.430
  462SOL     OW 4384   1.214   6.233  13.299
  462SOL    HW1 4385   1.297   6.238  13.243
  462SOL    HW2 4386   1.229   6.284  13.384
  463SOL     OW 4387   1.066   0.620  11.298
  463SOL    HW1 4388   1.005   0.697  11.319
  463SOL    HW2 4389   1.161   0.647  11.314
  464SOL     OW 4390   2.994   2.388  12.489
  464SOL    HW1 4391   3.031   2.431  12.406
  464SOL    HW2 4392   2.934   2.312  12.463
  465SOL     OW 4393   6.034   0.268  13.878
  465SOL    HW1 4394   6.008   0.184  13.927
  465SOL    HW2 4395   6.114   0.250  13.821
  466SOL     OW 4396   2.430   2.454  15.800
  466SOL    HW1 4397   2.520   2.493  15.785
  466SOL    HW2 4398   2.386   2.499  15.877
  467SOL     OW 4399   1.458   5.946  11.555
  467SOL    HW1 4400   1.383   5.997  11.598
  467SOL    HW2 4401   1.518   5.910  11.625
  468SOL     OW 4402   5.687   5.112  11.465
  468SOL    HW1 4403   5.666   5.042  11.533
  468SOL    HW2 4404   5.733   5.070  11.387
  469SOL     OW 4405   3.012   2.600  14.021
  469SOL    HW1 4406   3.053   2.589  14.111
  469SOL    HW2 4407   2.947   2.525  14.004
  470SOL     OW 4408   3.142   2.500  14.851
  470SOL    HW1 4409   3.053   2.528  14.886
  470SOL    HW2 4410   3.132   2.470  14.756
  471SOL     OW 4411   4.330   1.737  13.823
  471SOL    HW1 4412   4.322   1.837  13.831
  471SOL    HW2 4413   4.424   1.713  13.802
  472SOL     OW 4414   1.101   3.698  15.746
  472SOL    HW1 4415   1.087   3.778  15.688
  472SOL    HW2 4416   1.199   3.687  15.764
  473SOL     OW 4417   0.884   3.477  11.645
  473SOL    HW1 4418   0.873   3.556  11.705
  473SOL    HW2 4419   0.980   3.448  11.646
  474SOL     OW 4420   5.768   3.237  11.357
  474SOL    HW1 4421   5.852   3.263  11.404
  474SOL    HW2 4422   5.689   3.267  11.411
  475SOL     OW 4423   1.158   1.773  13.635
  475SOL    HW1 4424   1.196   1.691  13.591
  475SOL    HW2 4425   1.110   1.828  13.567
  476SOL     OW 4426   2.477   5.666  15.281
  476SOL    HW1 4427   2.425   5.661  15.366
  476SOL    HW2 4428   2.415   5.692  15.206
  477SOL     OW 4429   4.799   2.148  13.131
  477SOL    HW1 4430   4.889   2.189  13.119
  477SOL    HW2 4431   4.809   2.056  13.170
  478SOL     OW 4432   1.566   1.421  12.548
  478SOL    HW1 4433   1.469   1.399  12.559
  478SOL    HW2 4434   1.578   1.520  12.541
  479SOL     OW 4435   3.614   0.522  15.605
  479SOL    HW1 4436   3.557   0.550  15.527
  479SOL    HW2 4437   3.678   0.451  15.575
  480SOL     OW 4438   2.198   4.482  15.120
  480SOL    HW1 4439   2.231   4.459  15.211
  480SOL    HW2 4440   2.251   4.432  15.051
  481SOL     OW 4441   5.727   1.058  15.341
  481SOL    HW1 4442   5.719   0.958  15.345
  481SOL    HW2 4443   5.823   1.084  15.337
  482SOL     OW 4444   0.972   5.506  13.832
  482SOL    HW1 4445   0.999   5.587  13.779
  482SOL    HW2 4446   0.875   5.512  13.856
  483SOL     OW 4447   5.853   1.070  15.908
  483SOL    HW1 4448   5.941   1.023  15.910
  483SOL    HW2 4449   5.784   1.014  15.953
  484SOL     OW 4450   3.914   1.359  15.256
  484SOL    HW1 4451   3.964   1.310  15.185
  484SOL    HW2 4452   3.942   1.326  15.346
  485SOL     OW 4453   5.365   3.878  14.816
  485SOL    HW1 4454   5.404   3.947  14.877
  485SOL    HW2 4455   5.438   3.817  14.785
  486SOL     OW 4456   0.549   1.105  15.028
  486SOL    HW1 4457   0.548   1.102  14.928
  486SOL    HW2 4458   0.599   1.186  15.059
  487SOL     OW 4459   5.108   5.075  11.277
  487SOL    HW1 4460   5.197   5.041  11.307
  487SOL    HW2 4461   5.117   5.123  11.190
  488SOL     OW 4462   3.565   1.960  11.141
  488SOL    HW1 4463   3.614   1.888  11.092
  488SOL    HW2 4464   3.478   1.979  11.095
  489SOL     OW 4465   4.511   5.711  14.713
  489SOL    HW1 4466   4.495   5.751  14.804
  489SOL    HW2 4467   4.580   5.765  14.665
  490SOL     OW 4468   0.508   4.775  12.187
  490SOL    HW1 4469   0.444   4.841  12.228
  490SOL    HW2 4470   0.600   4.793  12.222
  491SOL     OW 4471   1.365   0.873  15.394
  491SOL    HW1 4472   1.268   0.877  15.370
  491SOL    HW2 4473   1.404   0.787  15.361
  492SOL     OW 4474   5.667   4.686  14.767
  492SOL    HW1 4475   5.685   4.771  14.717
  492SOL    HW2 4476   5.737   4.619  14.745
  493SOL     OW 4477   5.084   0.441  13.035
  493SOL    HW1 4478   5.183   0.443  13.051
  493SOL    HW2 4479   5.056   0.347  13.016
  494SOL     OW 4480   2.982   0.965  12.408
  494SOL    HW1 4481   3.012   0.872  12.430
  494SOL    HW2 4482   2.958   1.013  12.492
  495SOL     OW 4483   3.029   2.410  12.031
  495SOL    HW1 4484   2.943   2.360  12.036
  495SOL    HW2 4485   3.039   2.470  12.111
  496SOL     OW 4486   3.573   2.813  13.112
  496SOL    HW1 4487   3.591   2.895  13.167
  496SOL    HW2 4488   3.484   2.775  13.138
  497SOL     OW 4489   1.741   3.006  12.133
  497SOL    HW1 4490   1.831   3.015  12.175
  497SOL    HW2 4491   1.701   3.096  12.119
  498SOL     OW 4492   4.636   0.436  11.319
  498SOL    HW1 4493   4.585   0.451  11.234
  498SOL    HW2 4494   4.590   0.367  11.374
  499SOL     OW 4495   0.370   1.087  12.223
  499SOL    HW1 4496   0.389   1.184  12.209
  499SOL    HW2 4497   0.441   1.048  12.282
  500SOL     OW 4498   2.140   5.000  15.330
  500SOL    HW1 4499   2.101   4.923  15.380
  500SOL    HW2 4500   2.194   4.967  15.253
  501SOL     OW 4501   3.621   1.755  13.714
  501SOL    HW1 4502   3.670   1.828  13.667
  501SOL    HW2 4503   3.686   1.691  13.755
  502SOL     OW 4504   2.326   4.550  11.400
  502SOL    HW1 4505   2.287   4.616  11.336
  502SOL    HW2 4506   2.258   4.528  11.470
  503SOL     OW 4507   5.668   4.813  15.720
  503SOL    HW1 4508   5.635   4.764  15.639
  503SOL    HW2 4509   5.603   4.801  15.795
  504SOL     OW 4510   0.814   4.092  11.425
  504SOL    HW1 4511   0.744   4.105  11.354
  504SOL    HW2 4512   0.787   4.017  11.485
  505SOL     OW 4513   4.406   2.017  15.004
  505SOL    HW1 4514   4.462   2.099  14.992
  505SOL    HW2 4515   4.310   2.042  15.010
  506SOL     OW 4516   5.537   5.971  11.976
  506SOL    HW1 4517   5.473   5.957  12.052
  506SOL    HW2 4518   5.569   6.066  11.977
  507SOL     OW 4519   4.368   0.453  14.055
  507SOL    HW1 4520   4.351   0.515  14.132
  507SOL    HW2 4521   4.435   0.494  13.993
  508SOL     OW 4522   5.402   2.728  11.180
  508SOL    HW1 4523   5.490   2.700  11.144
  508SOL    HW2 4524   5.332   2.662  11.152
  509SOL     OW 4525   3.688   4.969  14.576
  509SOL    HW1 4526   3.652   4.876  14.578
  509SOL    HW2 4527   3.612   5.034  14.580
  510SOL     OW 4528   5.420   2.513  12.337
  510SOL    HW1 4529   5.463   2.423  12.336
  510SOL    HW2 4530   5.491   2.583  12.329
  511SOL     OW 4531   3.564   5.915  13.414
  511SOL    HW1 4532   3.521   6.001  13.439
  511SOL    HW2 4533   3.657   5.912  13.450
  512SOL     OW 4534   5.549   6.282  13.592
  512SOL    HW1 4535   5.554   6.187  13.563
  512SOL    HW2 4536   5.638   6.326  13.577
  513SOL     OW 4537   0.298   1.882  14.877
  513SOL    HW1 4538   0.374   1.943  14.858
  513SOL    HW2 4539   0.319   1.825  14.956
  514SOL     OW 4540   4.941   4.399  14.262
  514SOL    HW1 4541   4.925   4.305  14.292
  514SOL    HW2 4542   4.991   4.399  14.176
  515SOL     OW 4543   1.411   1.187  11.399
  515SOL    HW1 4544   1.511   1.187  11.401
  515SOL    HW2 4545   1.378   1.277  11.372
  516SOL     OW 4546   0.278   2.488  12.288
  516SOL    HW1 4547   0.339   2.547  12.235
  516SOL    HW2 4548   0.318   2.471  12.378
  517SOL     OW 4549   4.828   5.994  15.116
  517SOL    HW1 4550   4.850   5.909  15.069
  517SOL    HW2 4551   4.731   6.015  15.102
  518SOL     OW 4552   5.627   5.483  15.390
  518SOL    HW1 4553   5.656   5.573  15.358
  518SOL    HW2 4554   5.611   5.423  15.312
  519SOL     OW 4555   2.512   1.231  14.511
  519SOL    HW1 4556   2.414   1.250  14.511
  519SOL    HW2 4557   2.563   1.317  14.509
  520SOL     OW 4558   4.350   5.305  11.864
  520SOL    HW1 4559   4.384   5.211  11.859
  520SOL    HW2 4560   4.256   5.309  11.829
  521SOL     OW 4561   2.705   1.196  13.224
  521SOL    HW1 4562   2.621   1.143  13.211
  521SOL    HW2 4563   2.783   1.143  13.192
  522SOL     OW 4564   0.191   6.275  12.817
  522SOL    HW1 4565   0.164   6.179  12.814
  522SOL    HW2 4566   0.136   6.327  12.750
  523SOL     OW 4567   5.768   2.779  12.987
  523SOL    HW1 4568   5.816   2.764  12.900
  523SOL    HW2 4569   5.768   2.695  13.041
  524SOL     OW 4570   2.167   6.187  15.635
  524SOL    HW1 4571   2.192   6.120  15.705
  524SOL    HW2 4572   2.208   6.161  15.547
  525SOL     OW 4573   2.144   0.919  12.493
  525SOL    HW1 4574   2.061   0.914  12.438
  525SOL    HW2 4575   2.220   0.951  12.437
  526SOL     OW 4576   1.261   2.995  15.445
  526SOL    HW1 4577   1.338   3.011  15.383
  526SOL    HW2 4578   1.290   3.008  15.539
  527SOL     OW 4579   1.781   6.230  13.337
  527SOL    HW1 4580   1.756   6.150  13.282
  527SOL    HW2 4581   1.881   6.237  13.343
  528SOL     OW 4582   6.238   1.389  12.887
  528SOL    HW1 4583   6.152   1.352  12.922
  528SOL    HW2 4584   6.220   1.467  12.828
  529SOL     OW 4585   1.795   5.430  11.568
  529SOL    HW1 4586   1.711   5.385  11.599
  529SOL    HW2 4587   1.817   5.505  11.630
  530SOL     OW 4588   5.395   5.644  15.443
  530SOL    HW1 4589   5.455   5.636  15.522
  530SOL    HW2 4590   5.403   5.735  15.403
  531SOL     OW 4591   5.235   2.367  14.260
  531SOL    HW1 4592   5.139   2.389  14.247
  531SOL    HW2 4593   5.259   2.287  14.206
  532SOL     OW 4594   5.199   4.011  11.735
  532SOL    HW1 4595   5.221   4.047  11.825
  532SOL    HW2 4596   5.176   4.087  11.674
  533SOL     OW 4597   0.508   0.633  15.199
  533SOL    HW1 4598   0.438   0.561  15.200
  533SOL    HW2 4599   0.599   0.591  15.199
  534SOL     OW 4600   5.542   0.701  14.101
  534SOL    HW1 4601   5.572   0.670  14.011
  534SOL    HW2 4602   5.568   0.633  14.170
  535SOL     OW 4603   0.513   1.659  15.034
  535SOL    HW1 4604   0.498   1.560  15.042
  535SOL    HW2 4605   0.527   1.683  14.938
  536SOL     OW 4606   4.021   5.504  14.391
  536SOL    HW1 4607   3.997   5.588  14.440
  536SOL    HW2 4608   4.117   5.506  14.365
  537SOL     OW 4609   3.294   1.551  14.548
  537SOL    HW1 4610   3.268   1.455  14.538
  537SOL    HW2 4611   3.364   1.574  14.480
  538SOL     OW 4612   1.150   4.996  15.743
  538SOL    HW1 4613   1.139   4.964  15.649
  538SOL    HW2 4614   1.064   4.983  15.792
  539SOL     OW 4615   4.407   0.045  15.278
  539SOL    HW1 4616   4.429   0.142  15.279
  539SOL    HW2 4617   4.384   0.016  15.185
  540SOL     OW 4618   5.983   3.609  14.564
  540SOL    HW1 4619   6.023   3.571  14.481
  540SOL    HW2 4620   5.885   3.586  14.568
  541SOL     OW 4621   6.033   2.765  14.878
  541SOL    HW1 4622   6.008   2.767  14.975
  541SOL    HW2 4623   6.032   2.859  14.842
  542SOL     OW 4624   5.144   4.731  11.939
  542SOL    HW1 4625   5.237   4.699  11.958
  542SOL    HW2 4626   5.092   4.734  12.024
  543SOL     OW 4627   5.200   5.970  12.797
  543SOL    HW1 4628   5.140   5.891  12.800
  543SOL    HW2 4629   5.292   5.943  12.826
  544SOL     OW 4630   0.503   5.675  15.196
  544SOL    HW1 4631   0.469   5.586  15.224
  544SOL    HW2 4632   0.599   5.684  15.223
  545SOL     OW 4633   5.360   3.918  12.301
  545SOL    HW1 4634   5.305   3.915  12.217
  545SOL    HW2 4635   5.345   4.006  12.347
  546SOL     OW 4636   0.619   5.983  11.401
  546SOL    HW1 4637   0.712   5.972  11.367
  546SOL    HW2 4638   0.598   6.081  11.407
  547SOL     OW 4639   0.123   1.641  15.261
  547SOL    HW1 4640   0.034   1.612  15.296
  547SOL    HW2 4641   0.196   1.602  15.319
  548SOL     OW 4642   4.404   4.432  14.892
  548SOL    HW1 4643   4.349   4.516  14.892
  548SOL    HW2 4644   4.430   4.409  14.985
  549SOL     OW 4645   2.610   0.138  12.092
  549SOL    HW1 4646   2.600   0.070  12.165
  549SOL    HW2 4647   2.521   0.177  12.070
  550SOL     OW 4648   5.014   3.770  14.044
  550SOL    HW1 4649   5.020   3.685  14.096
  550SOL    HW2 4650   5.034   3.752  13.947
  551SOL     OW 4651   1.645   1.836  13.241
  551SOL    HW1 4652   1.694   1.917  13.273
  551SOL    HW2 4653   1.703   1.756  13.251
  552SOL     OW 4654   1.780   3.836  11.642
  552SOL    HW1 4655   1.718   3.758  11.642
  552SOL    HW2 4656   1.875   3.803  11.645
  553SOL     OW 4657   5.984   5.956  14.745
  553SOL    HW1 4658   5.986   5.862  14.778
  553SOL    HW2 4659   5.896   5.975  14.703
  554SOL     OW 4660   3.705   4.953  15.193
  554SOL    HW1 4661   3.623   4.944  15.249
  554SOL    HW2 4662   3.746   4.863  15.177
  555SOL     OW 4663   2.987   2.139  12.069
  555SOL    HW1 4664   2.998   2.063  12.133
  555SOL    HW2 4665   2.973   2.102  11.976
  556SOL     OW 4666   4.380   4.232  11.777
  556SOL    HW1 4667   4.373   4.136  11.753
  556SOL    HW2 4668   4.305   4.283  11.735
  557SOL     OW 4669   0.264   6.227  11.841
  557SOL    HW1 4670   0.339   6.261  11.897
  557SOL    HW2 4671   0.271   6.266  11.749
  558SOL     OW 4672   5.158   1.623  12.705
  558SOL    HW1 4673   5.193   1.565  12.632
  558SOL    HW2 4674   5.137   1.567  12.785
  559SOL     OW 4675   1.156   4.206  14.298
  559SOL    HW1 4676   1.256   4.214  14.302
  559SOL    HW2 4677   1.115   4.296  14.306
  560SOL     OW 4678   5.230   1.396  15.142
  560SOL    HW1 4679   5.162   1.394  15.069
  560SOL    HW2 4680   5.271   1.488  15.148
  561SOL     OW 4681   2.778   1.958  11.588
  561SOL    HW1 4682   2.855   2.019  11.610
  561SOL    HW2 4683   2.802   1.902  11.509
  562SOL     OW 4684   3.773   3.725  14.300
  562SOL    HW1 4685   3.761   3.657  14.227
  562SOL    HW2 4686   3.845   3.695  14.363
  563SOL     OW 4687   2.885   3.919  12.245
  563SOL    HW1 4688   2.936   3.834  12.239
  563SOL    HW2 4689   2.787   3.900  12.246
  564SOL     OW 4690   1.044   4.293  11.171
  564SOL    HW1 4691   1.138   4.286  11.204
  564SOL    HW2 4692   1.000   4.204  11.176
  565SOL     OW 4693   2.108   0.755  11.891
  565SOL    HW1 4694   2.123   0.657  11.895
  565SOL    HW2 4695   2.010   0.775  11.900
  566SOL     OW 4696   2.108   6.142  13.984
  566SOL    HW1 4697   2.181   6.210  13.986
  566SOL    HW2 4698   2.115   6.082  14.064
  567SOL     OW 4699   3.509   2.713  15.567
  567SOL    HW1 4700   3.582   2.664  15.519
  567SOL    HW2 4701   3.534   2.723  15.664
  568SOL     OW 4702   3.982   4.793  14.661
  568SOL    HW1 4703   3.886   4.797  14.632
  568SOL    HW2 4704   4.023   4.884  14.652
  569SOL     OW 4705   1.843   0.239  13.910
  569SOL    HW1 4706   1.934   0.209  13.940
  569SOL    HW2 4707   1.839   0.339  13.910
  570SOL     OW 4708   0.447   6.102  12.167
  570SOL    HW1 4709   0.354   6.124  12.139
  570SOL    HW2 4710   0.445   6.029  12.235
  571SOL     OW 4711   4.701   5.607  13.779
  571SOL    HW1 4712   4.626   5.544  13.757
  571SOL    HW2 4713   4.751   5.629  13.696
  572SOL     OW 4714   4.376   4.157  12.290
  572SOL    HW1 4715   4.352   4.061  12.277
  572SOL    HW2 4716   4.475   4.168  12.285
  573SOL     OW 4717   0.309   1.748  15.990
  573SOL    HW1 4718   0.211   1.764  16.000
  573SOL    HW2 4719   0.324   1.671  15.927
  574SOL     OW 4720   1.960   2.446  12.730
  574SOL    HW1 4721   2.056   2.467  12.713
  574SOL    HW2 4722   1.915   2.422  12.644
  575SOL     OW 4723   0.253   1.840  11.084
  575SOL    HW1 4724   0.266   1.775  11.159
  575SOL    HW2 4725   0.199   1.797  11.012
  576SOL     OW 4726   0.484   4.075  15.423
  576SOL    HW1 4727   0.410   4.061  15.358
  576SOL    HW2 4728   0.485   4.170  15.455
  577SOL     OW 4729   2.911   3.601  12.147
  577SOL    HW1 4730   2.828   3.547  12.140
  577SOL    HW2 4731   2.966   3.589  12.064
  578SOL     OW 4732   6.043   1.304  15.516
  578SOL    HW1 4733   6.110   1.230  15.507
  578SOL    HW2 4734   6.091   1.392  15.518
  579SOL     OW 4735   0.159   0.418  13.280
  579SOL    HW1 4736   0.150   0.381  13.188
  579SOL    HW2 4737   0.190   0.345  13.342
  580SOL     OW 4738   0.933   0.682  13.522
  580SOL    HW1 4739   0.874   0.666  13.443
  580SOL    HW2 4740   0.996   0.605  13.531
  581SOL     OW 4741   5.486   2.156  15.337
  581SOL    HW1 4742   5.392   2.124  15.348
  581SOL    HW2 4743   5.535   2.095  15.275
  582SOL     OW 4744   5.500   1.084  14.165
  582SOL    HW1 4745   5.587   1.082  14.214
  582SOL    HW2 4746   5.424   1.074  14.229
  583SOL     OW 4747   0.319   2.530  14.340
  583SOL    HW1 4748   0.302   2.432  14.331
  583SOL    HW2 4749   0.416   2.544  14.361
  584SOL     OW 4750   2.179   2.539  12.884
  584SOL    HW1 4751   2.188   2.629  12.840
  584SOL    HW2 4752   2.251   2.478  12.850
  585SOL     OW 4753   4.609   1.536  11.993
  585SOL    HW1 4754   4.514   1.534  12.022
  585SOL    HW2 4755   4.637   1.444  11.964
  586SOL     OW 4756   3.941   5.017  14.475
  586SOL    HW1 4757   4.022   5.006  14.418
  586SOL    HW2 4758   3.887   5.094  14.442
  587SOL     OW 4759   1.216   4.967  11.472
  587SOL    HW1 4760   1.223   5.016  11.560
  587SOL    HW2 4761   1.127   4.985  11.431
  588SOL     OW 4762   2.572   3.822  15.252
  588SOL    HW1 4763   2.486   3.772  15.266
  588SOL    HW2 4764   2.642   3.759  15.219
  589SOL     OW 4765   5.906   0.941  12.118
  589SOL    HW1 4766   5.851   0.892  12.051
  589SOL    HW2 4767   5.891   1.039  12.108
  590SOL     OW 4768   1.173   3.076  15.760
  590SOL    HW1 4769   1.177   2.980  15.733
  590SOL    HW2 4770   1.086   3.093  15.806
  591SOL     OW 4771   3.779   2.786  11.469
  591SOL    HW1 4772   3.836   2.861  11.504
  591SOL    HW2 4773   3.820   2.749  11.386
  592SOL     OW 4774   2.753   4.050  15.191
  592SOL    HW1 4775   2.789   4.141  15.205
  592SOL    HW2 4776   2.659   4.045  15.227
  593SOL     OW 4777   2.798   4.399  11.430
  593SOL    HW1 4778   2.778   4.490  11.394
  593SOL    HW2 4779   2.863   4.406  11.506
  594SOL     OW 4780   0.218   2.258  11.269
  594SOL    HW1 4781   0.143   2.280  11.331
  594SOL    HW2 4782   0.303   2.300  11.303
  595SOL     OW 4783   5.016   0.680  15.597
  595SOL    HW1 4784   5.093   0.737  15.628
  595SOL    HW2 4785   4.930   0.722  15.627
  596SOL     OW 4786   3.044   1.989  11.298
  596SOL    HW1 4787   2.960   2.019  11.344
  596SOL    HW2 4788   3.023   1.910  11.240
  597SOL     OW 4789   5.172   1.590  13.755
  597SOL    HW1 4790   5.095   1.571  13.694
  597SOL    HW2 4791   5.224   1.668  13.720
  598SOL     OW 4792   3.324   1.476  11.517
  598SOL    HW1 4793   3.257   1.517  11.455
  598SOL    HW2 4794   3.296   1.383  11.539
  599SOL     OW 4795   1.154   1.930  15.689
  599SOL    HW1 4796   1.071   1.978  15.661
  599SOL    HW2 4797   1.213   1.992  15.741
  600SOL     OW 4798   1.476   1.642  12.077
  600SOL    HW1 4799   1.541   1.702  12.031
  600SOL    HW2 4800   1.503   1.546  12.063
  601SOL     OW 4801   4.320   4.000  14.826
  601SOL    HW1 4802   4.257   4.063  14.871
  601SOL    HW2 4803   4.276   3.912  14.814
  602SOL     OW 4804   5.055   0.950  12.674
  602SOL    HW1 4805   5.148   0.945  12.639
  602SOL    HW2 4806   5.014   0.859  12.672
  603SOL     OW 4807   4.668   1.182  15.656
  603SOL    HW1 4808   4.635   1.195  15.562
  603SOL    HW2 4809   4.748   1.121  15.654
  604SOL     OW 4810   0.398   3.343  15.972
  604SOL    HW1 4811   0.416   3.253  15.933
  604SOL    HW2 4812   0.461   3.409  15.932
  605SOL     OW 4813   0.231   1.468  11.002
  605SOL    HW1 4814   0.147   1.415  11.016
  605SOL    HW2 4815   0.213   1.565  11.016
  606SOL     OW 4816   1.964   0.760  14.450
  606SOL    HW1 4817   2.042   0.795  14.398
  606SOL    HW2 4818   1.996   0.692  14.516
  607SOL     OW 4819   2.753   2.453  15.302
  607SOL    HW1 4820   2.718   2.360  15.294
  607SOL    HW2 4821   2.703   2.502  15.373
  608SOL     OW 4822   2.844   3.476  11.193
  608SOL    HW1 4823   2.847   3.466  11.292
  608SOL    HW2 4824   2.766   3.425  11.156
  609SOL     OW 4825   4.027   1.908  13.923
  609SOL    HW1 4826   3.976   1.943  14.002
  609SOL    HW2 4827   4.077   1.984  13.880
  610SOL     OW 4828   6.245   1.589  14.169
  610SOL    HW1 4829   6.189   1.518  14.126
  610SOL    HW2 4830   6.201   1.678  14.157
  611SOL     OW 4831   1.206   1.394  12.569
  611SOL    HW1 4832   1.132   1.360  12.627
  611SOL    HW2 4833   1.233   1.324  12.504
  612SOL     OW 4834   2.933   3.269  11.590
  612SOL    HW1 4835   2.998   3.332  11.633
  612SOL    HW2 4836   2.865   3.321  11.539
  613SOL     OW 4837   5.709   2.345  13.047
  613SOL    HW1 4838   5.807   2.346  13.028
  613SOL    HW2 4839   5.673   2.253  13.035
  614SOL     OW 4840   0.986   3.918  14.970
  614SOL    HW1 4841   0.953   3.955  14.884
  614SOL    HW2 4842   0.926   3.843  15.000
  615SOL     OW 4843   0.899   4.810  12.669
  615SOL    HW1 4844   0.894   4.838  12.573
  615SOL    HW2 4845   0.908   4.891  12.727
  616SOL     OW 4846   2.923   2.129  15.281
  616SOL    HW1 4847   2.831   2.094  15.264
  616SOL    HW2 4848   2.989   2.083  15.221
  617SOL     OW 4849   4.732   3.907  11.933
  617SOL    HW1 4850   4.651   3.959  11.908
  617SOL    HW2 4851   4.704   3.820  11.975
  618SOL     OW 4852   5.125   0.377  15.281
  618SOL    HW1 4853   5.167   0.467  15.277
  618SOL    HW2 4854   5.028   0.384  15.254
  619SOL     OW 4855   0.644   3.381  15.669
  619SOL    HW1 4856   0.583   3.411  15.743
  619SOL    HW2 4857   0.732   3.428  15.677
  620SOL     OW 4858   4.752   2.896  14.796
  620SOL    HW1 4859   4.662   2.935  14.817
  620SOL    HW2 4860   4.743   2.797  14.785
  621SOL     OW 4861   5.764   6.272  12.261
  621SOL    HW1 4862   5.745   6.191  12.206
  621SOL    HW2 4863   5.813   6.339  12.205
  622SOL     OW 4864   4.043   3.935  14.741
  622SOL    HW1 4865   4.045   3.960  14.838
  622SOL    HW2 4866   3.978   3.860  14.727
  623SOL     OW 4867   5.372   1.808  14.565
  623SOL    HW1 4868   5.325   1.894  14.546
  623SOL    HW2 4869   5.322   1.758  14.636
  624SOL     OW 4870   5.560   1.817  14.210
  624SOL    HW1 4871   5.650   1.779  14.186
  624SOL    HW2 4872   5.497   1.803  14.134
  625SOL     OW 4873   0.522   0.777  14.937
  625SOL    HW1 4874   0.503   0.679  14.942
  625SOL    HW2 4875   0.545   0.802  14.843
  626SOL     OW 4876   3.472   5.916  12.754
  626SOL    HW1 4877   3.557   5.864  12.764
  626SOL    HW2 4878   3.493   6.014  12.754
  627SOL     OW 4879   0.145   4.530  14.279
  627SOL    HW1 4880   0.244   4.523  14.269
  627SOL    HW2 4881   0.117   4.626  14.279
  628SOL     OW 4882   1.888   5.116  15.109
  628SOL    HW1 4883   1.813   5.050  15.112
  628SOL    HW2 4884   1.867   5.193  15.170
  629SOL     OW 4885   4.604   4.811  11.351
  629SOL    HW1 4886   4.624   4.876  11.425
  629SOL    HW2 4887   4.606   4.859  11.263
  630SOL     OW 4888   3.104   3.710  12.875
  630SOL    HW1 4889   3.172   3.637  12.884
  630SOL    HW2 4890   3.144   3.786  12.825
  631SOL     OW 4891   0.778   0.652  11.812
  631SOL    HW1 4892   0.777   0.562  11.856
  631SOL    HW2 4893   0.794   0.641  11.714
  632SOL     OW 4894   4.804   4.726  13.879
  632SOL    HW1 4895   4.850   4.637  13.876
  632SOL    HW2 4896   4.709   4.714  13.907
  633SOL     OW 4897   1.497   5.414  11.468
  633SOL    HW1 4898   1.474   5.317  11.480
  633SOL    HW2 4899   1.413   5.467  11.460
  634SOL     OW 4900   3.167   5.545  13.835
  634SOL    HW1 4901   3.264   5.551  13.858
  634SOL    HW2 4902   3.131   5.637  13.819
  635SOL     OW 4903   1.010   5.440  12.568
  635SOL    HW1 4904   0.998   5.537  12.592
  635SOL    HW2 4905   0.921   5.401  12.544
  636SOL     OW 4906   5.864   2.121  12.368
  636SOL    HW1 4907   5.943   2.181  12.383
  636SOL    HW2 4908   5.781   2.176  12.362
  637SOL     OW 4909   1.931   0.219  11.235
  637SOL    HW1 4910   2.023   0.210  11.275
  637SOL    HW2 4911   1.919   0.149  11.165
  638SOL     OW 4912   1.413   5.399  13.875
  638SOL    HW1 4913   1.359   5.317  13.891
  638SOL    HW2 4914   1.510   5.378  13.887
  639SOL     OW 4915   4.084   2.479  12.035
  639SOL    HW1 4916   4.174   2.451  12.069
  639SOL    HW2 4917   4.081   2.467  11.936
  640SOL     OW 4918   5.094   3.157  12.876
  640SOL    HW1 4919   5.082   3.086  12.807
  640SOL    HW2 4920   5.122   3.115  12.962
  641SOL     OW 4921   0.991   4.341  11.560
  641SOL    HW1 4922   1.030   4.394  11.636
  641SOL    HW2 4923   0.993   4.244  11.583
  642SOL     OW 4924   0.558   0.472  14.783
  642SOL    HW1 4925   0.509   0.541  14.730
  642SOL    HW2 4926   0.505   0.449  14.864
  643SOL     OW 4927   1.244   1.874  11.974
  643SOL    HW1 4928   1.219   1.778  11.988
  643SOL    HW2 4929   1.339   1.879  11.946
  644SOL     OW 4930   3.791   2.831  14.849
  644SOL    HW1 4931   3.779   2.785  14.761
  644SOL    HW2 4932   3.758   2.772  14.923
  645SOL     OW 4933   2.299   5.196  14.103
  645SOL    HW1 4934   2.253   5.206  14.015
  645SOL    HW2 4935   2.356   5.276  14.120
  646SOL     OW 4936   3.789   2.874  14.474
  646SOL    HW1 4937   3.882   2.888  14.509
  646SOL    HW2 4938   3.729   2.845  14.549
  647SOL     OW 4939   4.676   2.560  14.530
  647SOL    HW1 4940   4.641   2.581  14.621
  647SOL    HW2 4941   4.626   2.482  14.492
  648SOL     OW 4942   0.145   4.378  14.728
  648SOL    HW1 4943   0.072   4.329  14.680
  648SOL    HW2 4944   0.107   4.458  14.773
  649SOL     OW 4945   5.737   2.049  15.167
  649SOL    HW1 4946   5.744   1.990  15.248
  649SOL    HW2 4947   5.828   2.082  15.142
  650SOL     OW 4948   2.620   0.915  11.847
  650SOL    HW1 4949   2.522   0.900  11.862
  650SOL    HW2 4950   2.656   0.974  11.919
  651SOL     OW 4951   0.518   1.523  11.735
  651SOL    HW1 4952   0.447   1.546  11.801
  651SOL    HW2 4953   0.511   1.427  11.710
  652SOL     OW 4954   3.354   3.924  15.166
  652SOL    HW1 4955   3.445   3.938  15.128
  652SOL    HW2 4956   3.326   4.005  15.217
  653SOL     OW 4957   4.222   2.053  14.766
  653SOL    HW1 4958   4.274   2.012  14.691
  653SOL    HW2 4959   4.133   2.083  14.732
  654SOL     OW 4960   5.004   3.365  12.812
  654SOL    HW1 4961   4.924   3.307  12.799
  654SOL    HW2 4962   4.986   3.430  12.887
  655SOL     OW 4963   1.535   2.415  11.752
  655SOL    HW1 4964   1.528   2.500  11.803
  655SOL    HW2 4965   1.457   2.408  11.689
  656SOL     OW 4966   5.069   0.627  11.894
  656SOL    HW1 4967   5.018   0.655  11.813
  656SOL    HW2 4968   5.098   0.531  11.884
  657SOL     OW 4969   1.152   2.127  12.253
  657SOL    HW1 4970   1.118   2.098  12.342
  657SOL    HW2 4971   1.222   2.062  12.222
  658SOL     OW 4972   3.393   0.305  13.044
  658SOL    HW1 4973   3.382   0.370  13.119
  658SOL    HW2 4974   3.490   0.288  13.028
  659SOL     OW 4975   1.618   2.034  15.048
  659SOL    HW1 4976   1.709   1.997  15.063
  659SOL    HW2 4977   1.622   2.134  15.046
  660SOL     OW 4978   5.892   1.989  13.033
  660SOL    HW1 4979   5.844   1.970  13.119
  660SOL    HW2 4980   5.990   1.980  13.048
  661SOL     OW 4981   1.087   3.290  14.841
  661SOL    HW1 4982   1.016   3.340  14.790
  661SOL    HW2 4983   1.069   3.192  14.835
  662SOL     OW 4984   3.935   3.810  11.784
  662SOL    HW1 4985   3.933   3.835  11.687
  662SOL    HW2 4986   3.852   3.759  11.807
  663SOL     OW 4987   3.916   0.040  14.974
  663SOL    HW1 4988   3.941   0.005  14.884
  663SOL    HW2 4989   3.996   0.081  15.018
  664SOL     OW 4990   4.260   4.913  11.885
  664SOL    HW1 4991   4.259   5.012  11.888
  664SOL    HW2 4992   4.169   4.878  11.864
  665SOL     OW 4993   1.063   2.856  11.183
  665SOL    HW1 4994   0.994   2.922  11.152
  665SOL    HW2 4995   1.025   2.764  11.179
  666SOL     OW 4996   4.244   1.703  11.921
  666SOL    HW1 4997   4.285   1.793  11.907
  666SOL    HW2 4998   4.316   1.636  11.941
  667SOL     OW 4999   0.426   2.955  12.037
  667SOL    HW1 5000   0.366   2.894  11.986
  667SOL    HW2 5001   0.370   3.018  12.092
  668SOL     OW 5002   5.495   5.537  11.654
  668SOL    HW1 5003   5.410   5.484  11.656
  668SOL    HW2 5004   5.476   5.628  11.617
  669SOL     OW 5005   0.950   5.406  14.156
  669SOL    HW1 5006   0.948   5.308  14.175
  669SOL    HW2 5007   0.924   5.422  14.061
  670SOL     OW 5008   0.567   3.761  14.813
  670SOL    HW1 5009   0.544   3.689  14.879
  670SOL    HW2 5010   0.561   3.725  14.720
  671SOL     OW 5011   5.230   2.766  12.091
  671SOL    HW1 5012   5.236   2.687  12.030
  671SOL    HW2 5013   5.150   2.756  12.151
  672SOL     OW 5014   1.491   3.740  15.272
  672SOL    HW1 5015   1.585   3.720  15.297
  672SOL    HW2 5016   1.440   3.655  15.260
  673SOL     OW 5017   1.892   6.278  11.670
  673SOL    HW1 5018   1.905   6.322  11.759
  673SOL    HW2 5019   1.922   6.183  11.676
  674SOL     OW 5020   1.623   1.864  12.258
  674SOL    HW1 5021   1.711   1.816  12.263
  674SOL    HW2 5022   1.556   1.817  12.315
  675SOL     OW 5023   1.381   3.615  11.928
  675SOL    HW1 5024   1.311   3.686  11.934
  675SOL    HW2 5025   1.470   3.654  11.948
  676SOL     OW 5026   5.311   2.306  12.928
  676SOL    HW1 5027   5.315   2.207  12.943
  676SOL    HW2 5028   5.237   2.345  12.984
  677SOL     OW 5029   5.123   4.617  15.356
  677SOL    HW1 5030   5.032   4.574  15.360
  677SOL    HW2 5031   5.112   4.715  15.336
  678SOL     OW 5032   3.937   4.424  15.832
  678SOL    HW1 5033   3.991   4.342  15.816
  678SOL    HW2 5034   3.923   4.472  15.746
  679SOL     OW 5035   2.673   5.456  15.140
  679SOL    HW1 5036   2.726   5.373  15.128
  679SOL    HW2 5037   2.734   5.535  15.142
  680SOL     OW 5038   6.195   5.773  14.056
  680SOL    HW1 5039   6.152   5.717  14.126
  680SOL    HW2 5040   6.278   5.816  14.093
  681SOL     OW 5041   4.270   6.095  15.585
  681SOL    HW1 5042   4.240   6.120  15.677
  681SOL    HW2 5043   4.360   6.051  15.589
  682SOL     OW 5044   2.735   2.253  12.602
  682SOL    HW1 5045   2.779   2.169  12.568
  682SOL    HW2 5046   2.718   2.315  12.525
  683SOL     OW 5047   0.025   2.922  11.089
  683SOL    HW1 5048   0.043   2.840  11.035
  683SOL    HW2 5049   0.111   2.971  11.105
  684SOL     OW 5050   2.283   5.546  13.502
  684SOL    HW1 5051   2.313   5.614  13.569
  684SOL    HW2 5052   2.201   5.581  13.455
  685SOL     OW 5053   1.204   4.005  15.583
  685SOL    HW1 5054   1.296   4.027  15.551
  685SOL    HW2 5055   1.164   4.086  15.626
  686SOL     OW 5056   3.702   1.342  12.563
  686SOL    HW1 5057   3.618   1.394  12.577
  686SOL    HW2 5058   3.701   1.303  12.471
  687SOL     OW 5059   0.896   5.480  15.275
  687SOL    HW1 5060   0.938   5.390  15.258
  687SOL    HW2 5061   0.797   5.470  15.279
  688SOL     OW 5062   1.467   5.608  13.328
  688SOL    HW1 5063   1.550   5.614  13.273
  688SOL    HW2 5064   1.482   5.651  13.417
  689SOL     OW 5065   3.521   2.949  11.530
  689SOL    HW1 5066   3.562   2.926  11.441
  689SOL    HW2 5067   3.593   2.963  11.598
  690SOL     OW 5068   5.686   2.681  11.384
  690SOL    HW1 5069   5.744   2.618  11.435
  690SOL    HW2 5070   5.615   2.629  11.336
  691SOL     OW 5071   1.318   3.343  12.863
  691SOL    HW1 5072   1.413   3.312  12.868
  691SOL    HW2 5073   1.297   3.396  12.946
  692SOL     OW 5074   3.226   3.384  15.037
  692SOL    HW1 5075   3.126   3.383  15.043
  692SOL    HW2 5076   3.266   3.378  15.129
  693SOL     OW 5077   3.736   0.059  13.048
  693SOL    HW1 5078   3.765   0.154  13.042
  693SOL    HW2 5079   3.808  -0.000  13.010
  694SOL     OW 5080   1.973   2.357  13.917
  694SOL    HW1 5081   2.046   2.425  13.910
  694SOL    HW2 5082   2.009   2.267  13.891
  695SOL     OW 5083   5.465   2.438  12.101
  695SOL    HW1 5084   5.389   2.483  12.054
  695SOL    HW2 5085   5.437   2.346  12.130
  696SOL     OW 5086   0.983   3.624  12.591
  696SOL    HW1 5087   0.917   3.597  12.662
  696SOL    HW2 5088   1.069   3.650  12.634
  697SOL     OW 5089   1.716   4.027  15.162
  697SOL    HW1 5090   1.815   4.041  15.159
  697SOL    HW2 5091   1.672   4.109  15.199
  698SOL     OW 5092   5.129   4.322  11.327
  698SOL    HW1 5093   5.206   4.366  11.372
  698SOL    HW2 5094   5.160   4.274  11.245
  699SOL     OW 5095   0.736   4.685  13.474
  699SOL    HW1 5096   0.724   4.645  13.384
  699SOL    HW2 5097   0.667   4.757  13.488
  700SOL     OW 5098   1.156   4.293  13.554
  700SOL    HW1 5099   1.176   4.202  13.591
  700SOL    HW2 5100   1.066   4.323  13.585
  701SOL     OW 5101   3.391   3.496  12.028
  701SOL    HW1 5102   3.321   3.452  11.972
  701SOL    HW2 5103   3.402   3.591  11.998
  702SOL     OW 5104   0.544   0.918  13.708
  702SOL    HW1 5105   0.616   0.976  13.670
  702SOL    HW2 5106   0.480   0.974  13.760
  703SOL     OW 5107   5.386   5.091  13.296
  703SOL    HW1 5108   5.438   5.064  13.377
  703SOL    HW2 5109   5.313   5.025  13.280
  704SOL     OW 5110   2.744   6.186  15.885
  704SOL    HW1 5111   2.714   6.092  15.899
  704SOL    HW2 5112   2.671   6.249  15.912
  705SOL     OW 5113   5.580   5.424  13.981
  705SOL    HW1 5114   5.594   5.326  13.967
  705SOL    HW2 5115   5.667   5.472  13.970
  706SOL     OW 5116   1.758   3.295  12.328
  706SOL    HW1 5117   1.802   3.319  12.414
  706SOL    HW2 5118   1.816   3.231  12.278
  707SOL     OW 5119   1.130   5.933  15.562
  707SOL    HW1 5120   1.119   5.854  15.502
  707SOL    HW2 5121   1.188   6.002  15.517
  708SOL     OW 5122   2.167   4.421  12.771
  708SOL    HW1 5123   2.156   4.398  12.675
  708SOL    HW2 5124   2.171   4.520  12.782
  709SOL     OW 5125   5.666   1.632  13.957
  709SOL    HW1 5126   5.764   1.650  13.943
  709SOL    HW2 5127   5.617   1.719  13.961
  710SOL     OW 5128   0.824   2.942  14.764
  710SOL    HW1 5129   0.914   2.985  14.760
  710SOL    HW2 5130   0.754   3.013  14.773
  711SOL     OW 5131   1.368   0.310  15.089
  711SOL    HW1 5132   1.370   0.266  14.999
  711SOL    HW2 5133   1.277   0.301  15.129
  712SOL     OW 5134   1.945   0.861  14.082
  712SOL    HW1 5135   1.847   0.876  14.073
  712SOL    HW2 5136   1.964   0.764  14.094
  713SOL     OW 5137   0.112   0.765  11.568
  713SOL    HW1 5138   0.082   0.669  11.572
  713SOL    HW2 5139   0.032   0.823  11.554
  714SOL     OW 5140   3.591   2.219  11.274
  714SOL    HW1 5141   3.501   2.255  11.299
  714SOL    HW2 5142   3.596   2.122  11.298
  715SOL     OW 5143   3.162   5.954  13.649
  715SOL    HW1 5144   3.121   6.043  13.630
  715SOL    HW2 5145   3.183   5.909  13.562
  716SOL     OW 5146   3.615   6.301  13.746
  716SOL    HW1 5147   3.551   6.224  13.738
  716SOL    HW2 5148   3.691   6.274  13.805
  717SOL     OW 5149   3.879   4.660  13.035
  717SOL    HW1 5150   3.843   4.567  13.028
  717SOL    HW2 5151   3.979   4.657  13.042
  718SOL     OW 5152   0.322   3.161  14.289
  718SOL    HW1 5153   0.299   3.247  14.336
  718SOL    HW2 5154   0.346   3.091  14.356
  719SOL     OW 5155   4.241   5.937  12.635
  719SOL    HW1 5156   4.193   5.991  12.565
  719SOL    HW2 5157   4.316   5.991  12.673
  720SOL     OW 5158   4.596   0.092  14.923
  720SOL    HW1 5159   4.630   0.089  15.017
  720SOL    HW2 5160   4.499   0.117  14.923
  721SOL     OW 5161   1.928   2.979  14.099
  721SOL    HW1 5162   1.949   2.883  14.120
  721SOL    HW2 5163   1.860   2.983  14.026
  722SOL     OW 5164   5.966   4.994  11.257
  722SOL    HW1 5165   6.032   4.919  11.254
  722SOL    HW2 5166   5.873   4.957  11.258
  723SOL     OW 5167   5.854   1.576  14.956
  723SOL    HW1 5168   5.952   1.586  14.975
  723SOL    HW2 5169   5.834   1.479  14.940
  724SOL     OW 5170   4.886   3.998  15.804
  724SOL    HW1 5171   4.836   3.989  15.890
  724SOL    HW2 5172   4.982   3.973  15.819
  725SOL     OW 5173   3.084   4.247  13.181
  725SOL    HW1 5174   3.164   4.201  13.218
  725SOL    HW2 5175   3.014   4.178  13.159
  726SOL     OW 5176   4.494   3.381  12.391
  726SOL    HW1 5177   4.433   3.302  12.399
  726SOL    HW2 5178   4.440   3.465  12.387
  727SOL     OW 5179   2.682   4.783  15.368
  727SOL    HW1 5180   2.746   4.717  15.330
  727SOL    HW2 5181   2.678   4.864  15.310
  728SOL     OW 5182   5.510   6.196  12.243
  728SOL    HW1 5183   5.478   6.157  12.157
  728SOL    HW2 5184   5.480   6.139  12.319
  729SOL     OW 5185   1.047   3.046  13.541
  729SOL    HW1 5186   0.967   3.106  13.538
  729SOL    HW2 5187   1.019   2.955  13.572
  730SOL     OW 5188   3.995   2.457  15.920
  730SOL    HW1 5189   3.938   2.527  15.963
  730SOL    HW2 5190   4.091   2.482  15.927
  731SOL     OW 5191   1.904   4.005  12.531
  731SOL    HW1 5192   1.816   4.040  12.566
  731SOL    HW2 5193   1.935   4.062  12.455
  732SOL     OW 5194   1.098   3.066  12.263
  732SOL    HW1 5195   1.114   3.044  12.359
  732SOL    HW2 5196   1.186   3.066  12.215
  733SOL     OW 5197   4.519   0.486  14.860
  733SOL    HW1 5198   4.588   0.438  14.806
  733SOL    HW2 5199   4.440   0.427  14.874
  734SOL     OW 5200   1.448   4.517  15.321
  734SOL    HW1 5201   1.458   4.585  15.248
  734SOL    HW2 5202   1.411   4.432  15.283
  735SOL     OW 5203   0.850   4.652  12.267
  735SOL    HW1 5204   0.831   4.659  12.365
  735SOL    HW2 5205   0.771   4.610  12.220
  736SOL     OW 5206   2.219   2.170  12.538
  736SOL    HW1 5207   2.143   2.235  12.547
  736SOL    HW2 5208   2.255   2.174  12.444
  737SOL     OW 5209   2.480   0.658  13.587
  737SOL    HW1 5210   2.408   0.727  13.580
  737SOL    HW2 5211   2.534   0.675  13.670
  738SOL     OW 5212   2.135   2.957  14.336
  738SOL    HW1 5213   2.140   3.028  14.266
  738SOL    HW2 5214   2.039   2.935  14.354
  739SOL     OW 5215   4.306   1.949  14.229
  739SOL    HW1 5216   4.219   1.932  14.275
  739SOL    HW2 5217   4.293   2.016  14.156
  740SOL     OW 5218   1.872   1.190  14.440
  740SOL    HW1 5219   1.784   1.197  14.394
  740SOL    HW2 5220   1.883   1.098  14.479
  741SOL     OW 5221   4.057   4.437  14.230
  741SOL    HW1 5222   4.139   4.405  14.277
  741SOL    HW2 5223   4.015   4.361  14.181
  742SOL     OW 5224   4.719   0.486  14.586
  742SOL    HW1 5225   4.767   0.465  14.670
  742SOL    HW2 5226   4.784   0.521  14.518
  743SOL     OW 5227   0.447   5.252  15.245
  743SOL    HW1 5228   0.497   5.218  15.165
  743SOL    HW2 5229   0.432   5.176  15.309
  744SOL     OW 5230   1.328   4.799  13.518
  744SOL    HW1 5231   1.391   4.726  13.491
  744SOL    HW2 5232   1.234   4.769  13.503
  745SOL     OW 5233   4.933   4.158  15.064
  745SOL    HW1 5234   5.030   4.136  15.068
  745SOL    HW2 5235   4.920   4.256  15.055
  746SOL     OW 5236   0.378   6.044  14.593
  746SOL    HW1 5237   0.373   6.053  14.494
  746SOL    HW2 5238   0.473   6.056  14.623
  747SOL     OW 5239   3.734   0.277  14.759
  747SOL    HW1 5240   3.655   0.323  14.800
  747SOL    HW2 5241   3.818   0.322  14.790
  748SOL     OW 5242   4.341   5.130  12.410
  748SOL    HW1 5243   4.369   5.036  12.393
  748SOL    HW2 5244   4.415   5.193  12.384
  749SOL     OW 5245   3.952   3.740  15.782
  749SOL    HW1 5246   3.940   3.838  15.767
  749SOL    HW2 5247   3.995   3.698  15.702
  750SOL     OW 5248   0.596   6.162  15.923
  750SOL    HW1 5249   0.560   6.091  15.863
  750SOL    HW2 5250   0.571   6.252  15.887
  751SOL     OW 5251   1.137   6.261  12.886
  751SOL    HW1 5252   1.197   6.336  12.912
  751SOL    HW2 5253   1.041   6.290  12.894
  752SOL     OW 5254   5.269   1.502  13.934
  752SOL    HW1 5255   5.331   1.428  13.911
  752SOL    HW2 5256   5.299   1.546  14.019
  753SOL     OW 5257   0.776   1.387  13.602
  753SOL    HW1 5258   0.850   1.333  13.644
  753SOL    HW2 5259   0.689   1.362  13.643
  754SOL     OW 5260   0.920   3.665  15.932
  754SOL    HW1 5261   0.973   3.749  15.917
  754SOL    HW2 5262   0.896   3.625  15.843
  755SOL     OW 5263   5.050   1.987  11.899
  755SOL    HW1 5264   5.101   1.932  11.833
  755SOL    HW2 5265   4.954   1.994  11.872
  756SOL     OW 5266   0.910   5.232  13.234
  756SOL    HW1 5267   0.871   5.144  13.207
  756SOL    HW2 5268   0.836   5.297  13.250
  757SOL     OW 5269   1.303   5.581  12.209
  757SOL    HW1 5270   1.279   5.670  12.171
  757SOL    HW2 5271   1.388   5.548  12.168
  758SOL     OW 5272   5.512   0.125  13.108
  758SOL    HW1 5273   5.569   0.056  13.153
  758SOL    HW2 5274   5.422   0.085  13.087
  759SOL     OW 5275   6.055   0.264  11.919
  759SOL    HW1 5276   6.077   0.174  11.958
  759SOL    HW2 5277   6.062   0.334  11.990
  760SOL     OW 5278   2.499   4.542  15.162
  760SOL    HW1 5279   2.589   4.544  15.206
  760SOL    HW2 5280   2.480   4.632  15.123
  761SOL     OW 5281   0.793   1.985  12.223
  761SOL    HW1 5282   0.726   1.939  12.165
  761SOL    HW2 5283   0.745   2.037  12.294
  762SOL     OW 5284   0.512   1.947  12.557
  762SOL    HW1 5285   0.602   1.975  12.589
  762SOL    HW2 5286   0.482   2.009  12.483
  763SOL     OW 5287   2.128   3.106  13.785
  763SOL    HW1 5288   2.128   3.007  13.790
  763SOL    HW2 5289   2.217   3.139  13.755
  764SOL     OW 5290   1.278   1.357  14.852
  764SOL    HW1 5291   1.235   1.447  14.862
  764SOL    HW2 5292   1.222   1.300  14.792
  765SOL     OW 5293   5.773   1.733  12.966
  765SOL    HW1 5294   5.708   1.658  12.963
  765SOL    HW2 5295   5.822   1.739  12.879
  766SOL     OW 5296   5.917   5.220  12.621
  766SOL    HW1 5297   5.853   5.293  12.643
  766SOL    HW2 5298   6.010   5.256  12.622
  767SOL     OW 5299   4.071   5.521  14.856
  767SOL    HW1 5300   4.088   5.424  14.877
  767SOL    HW2 5301   3.972   5.536  14.846
  768SOL     OW 5302   2.716   3.678  14.596
  768SOL    HW1 5303   2.666   3.722  14.522
  768SOL    HW2 5304   2.734   3.744  14.669
  769SOL     OW 5305   6.233   5.641  11.189
  769SOL    HW1 5306   6.197   5.642  11.282
  769SOL    HW2 5307   6.220   5.550  11.149
  770SOL     OW 5308   1.561   4.567  14.996
  770SOL    HW1 5309   1.554   4.468  15.004
  770SOL    HW2 5310   1.471   4.609  15.007
  771SOL     OW 5311   4.678   0.937  13.089
  771SOL    HW1 5312   4.633   0.984  13.013
  771SOL    HW2 5313   4.755   0.992  13.121
  772SOL     OW 5314   4.529   3.903  13.363
  772SOL    HW1 5315   4.538   3.834  13.291
  772SOL    HW2 5316   4.450   3.881  13.420
  773SOL     OW 5317   5.504   1.761  13.730
  773SOL    HW1 5318   5.438   1.817  13.779
  773SOL    HW2 5319   5.457   1.684  13.686
  774SOL     OW 5320   3.187   0.819  13.874
  774SOL    HW1 5321   3.173   0.841  13.971
  774SOL    HW2 5322   3.098   0.812  13.829
  775SOL     OW 5323   0.761   2.315  11.537
  775SOL    HW1 5324   0.760   2.376  11.458
  775SOL    HW2 5325   0.760   2.369  11.621
  776SOL     OW 5326   4.091   3.945  11.952
  776SOL    HW1 5327   4.099   4.041  11.924
  776SOL    HW2 5328   4.182   3.905  11.959
  777SOL     OW 5329   4.275   4.874  13.863
  777SOL    HW1 5330   4.345   4.941  13.840
  777SOL    HW2 5331   4.229   4.842  13.780
  778SOL     OW 5332   3.628   6.219  14.328
  778SOL    HW1 5333   3.618   6.319  14.321
  778SOL    HW2 5334   3.562   6.175  14.266
  779SOL     OW 5335   5.404   4.778  12.684
  779SOL    HW1 5336   5.368   4.743  12.598
  779SOL    HW2 5337   5.504   4.777  12.681
  780SOL     OW 5338   0.066   3.159  11.361
  780SOL    HW1 5339   0.157   3.153  11.320
  780SOL    HW2 5340   0.068   3.116  11.452
  781SOL     OW 5341   3.746   3.486  13.383
  781SOL    HW1 5342   3.736   3.553  13.456
  781SOL    HW2 5343   3.827   3.508  13.328
  782SOL     OW 5344   0.899   5.783  14.542
  782SOL    HW1 5345   0.891   5.716  14.615
  782SOL    HW2 5346   0.808   5.805  14.507
  783SOL     OW 5347   0.685   4.388  15.729
  783SOL    HW1 5348   0.762   4.420  15.672
  783SOL    HW2 5349   0.651   4.301  15.693
  784SOL     OW 5350   0.755   5.109  12.578
  784SOL    HW1 5351   0.714   5.043  12.640
  784SOL    HW2 5352   0.855   5.101  12.582
  785SOL     OW 5353   2.078   5.810  14.829
  785SOL    HW1 5354   1.993   5.843  14.869
  785SOL    HW2 5355   2.147   5.882  14.832
  786SOL     OW 5356   0.638   1.299  14.671
  786SOL    HW1 5357   0.702   1.329  14.742
  786SOL    HW2 5358   0.544   1.312  14.703
  787SOL     OW 5359   5.056   2.040  13.295
  787SOL    HW1 5360   5.155   2.033  13.287
  787SOL    HW2 5361   5.028   2.136  13.289
  788SOL     OW 5362   4.751   2.571  11.069
  788SOL    HW1 5363   4.725   2.569  11.165
  788SOL    HW2 5364   4.824   2.638  11.055
  789SOL     OW 5365   3.237   1.386  13.563
  789SOL    HW1 5366   3.186   1.469  13.541
  789SOL    HW2 5367   3.329   1.411  13.594
  790SOL     OW 5368   2.134   0.731  13.643
  790SOL    HW1 5369   2.213   0.781  13.678
  790SOL    HW2 5370   2.137   0.731  13.543
  791SOL     OW 5371   3.826   6.057  14.923
  791SOL    HW1 5372   3.892   6.129  14.900
  791SOL    HW2 5373   3.872   5.968  14.918
  792SOL     OW 5374   4.835   2.799  14.242
  792SOL    HW1 5375   4.876   2.883  14.206
  792SOL    HW2 5376   4.814   2.811  14.339
  793SOL     OW 5377   0.056   3.732  13.966
  793SOL    HW1 5378   0.001   3.704  13.888
  793SOL    HW2 5379  -0.000   3.729  14.049
  794SOL     OW 5380   6.015   4.146  12.037
  794SOL    HW1 5381   5.917   4.123  12.037
  794SOL    HW2 5382   6.037   4.199  11.956
  795SOL     OW 5383   5.760   2.359  13.323
  795SOL    HW1 5384   5.688   2.391  13.383
  795SOL    HW2 5385   5.819   2.436  13.298
  796SOL     OW 5386   3.391   3.159  15.623
  796SOL    HW1 5387   3.473   3.101  15.622
  796SOL    HW2 5388   3.310   3.101  15.623
  797SOL     OW 5389   3.837   1.910  12.403
  797SOL    HW1 5390   3.900   1.883  12.331
  797SOL    HW2 5391   3.827   1.836  12.469
  798SOL     OW 5392   5.575   0.874  13.028
  798SOL    HW1 5393   5.570   0.775  13.016
  798SOL    HW2 5394   5.482   0.911  13.036
  799SOL     OW 5395   5.362   0.388  15.999
  799SOL    HW1 5396   5.332   0.444  15.922
  799SOL    HW2 5397   5.311   0.302  16.000
  800SOL     OW 5398   0.475   0.152  14.953
  800SOL    HW1 5399   0.539   0.204  15.010
  800SOL    HW2 5400   0.516   0.065  14.928
  801SOL     OW 5401   1.639   0.187  12.587
  801SOL    HW1 5402   1.704   0.233  12.647
  801SOL    HW2 5403   1.645   0.088  12.601
  802SOL     OW 5404   2.949   2.501  15.853
  802SOL    HW1 5405   3.029   2.443  15.873
  802SOL    HW2 5406   2.930   2.498  15.755
  803SOL     OW 5407   3.457   5.817  11.117
  803SOL    HW1 5408   3.403   5.865  11.048
  803SOL    HW2 5409   3.521   5.881  11.159
  804SOL     OW 5410   1.663   4.590  14.371
  804SOL    HW1 5411   1.674   4.647  14.453
  804SOL    HW2 5412   1.734   4.521  14.368
  805SOL     OW 5413   1.144   0.562  14.385
  805SOL    HW1 5414   1.161   0.490  14.452
  805SOL    HW2 5415   1.055   0.547  14.342
  806SOL     OW 5416   5.603   3.551  14.613
  806SOL    HW1 5417   5.669   3.497  14.560
  806SOL    HW2 5418   5.634   3.647  14.617
  807SOL     OW 5419   2.092   0.199  12.754
  807SOL    HW1 5420   2.011   0.141  12.755
  807SOL    HW2 5421   2.174   0.141  12.751
  808SOL     OW 5422   1.130   5.666  13.944
  808SOL    HW1 5423   1.183   5.582  13.942
  808SOL    HW2 5424   1.040   5.648  13.986
  809SOL     OW 5425   4.925   0.057  15.809
  809SOL    HW1 5426   4.944   0.097  15.898
  809SOL    HW2 5427   4.834   0.015  15.810
  810SOL     OW 5428   4.105   1.949  13.186
  810SOL    HW1 5429   4.026   1.890  13.170
  810SOL    HW2 5430   4.087   2.010  13.263
  811SOL     OW 5431   2.504   5.412  13.366
  811SOL    HW1 5432   2.562   5.413  13.284
  811SOL    HW2 5433   2.548   5.356  13.436
  812SOL     OW 5434   4.654   5.399  11.278
  812SOL    HW1 5435   4.590   5.326  11.302
  812SOL    HW2 5436   4.746   5.362  11.271
  813SOL     OW 5437   4.438   4.867  12.156
  813SOL    HW1 5438   4.462   4.909  12.068
  813SOL    HW2 5439   4.483   4.917  12.230
  814SOL     OW 5440   4.397   3.281  11.164
  814SOL    HW1 5441   4.420   3.372  11.196
  814SOL    HW2 5442   4.397   3.280  11.064
  815SOL     OW 5443   4.272   4.451  11.219
  815SOL    HW1 5444   4.305   4.443  11.313
  815SOL    HW2 5445   4.211   4.375  11.199
  816SOL     OW 5446   0.341   5.076  12.128
  816SOL    HW1 5447   0.254   5.054  12.170
  816SOL    HW2 5448   0.372   4.999  12.072
  817SOL     OW 5449   3.255   1.003  12.324
  817SOL    HW1 5450   3.201   0.994  12.408
  817SOL    HW2 5451   3.236   1.091  12.281
  818SOL     OW 5452   3.821   0.126  13.267
  818SOL    HW1 5453   3.726   0.096  13.277
  818SOL    HW2 5454   3.868   0.116  13.354
  819SOL     OW 5455   3.048   0.663  12.490
  819SOL    HW1 5456   3.004   0.588  12.441
  819SOL    HW2 5457   3.127   0.628  12.541
  820SOL     OW 5458   5.189   3.873  14.308
  820SOL    HW1 5459   5.277   3.898  14.349
  820SOL    HW2 5460   5.192   3.891  14.209
  821SOL     OW 5461   1.548   1.446  11.120
  821SOL    HW1 5462   1.616   1.435  11.193
  821SOL    HW2 5463   1.595   1.460  11.033
  822SOL     OW 5464   1.945   5.257  14.571
  822SOL    HW1 5465   1.882   5.182  14.551
  822SOL    HW2 5466   1.893   5.334  14.610
  823SOL     OW 5467   3.941   1.856  11.090
  823SOL    HW1 5468   3.963   1.954  11.091
  823SOL    HW2 5469   3.842   1.844  11.091
  824SOL     OW 5470   5.058   3.026  11.906
  824SOL    HW1 5471   5.129   2.955  11.910
  824SOL    HW2 5472   5.101   3.116  11.905
  825SOL     OW 5473   6.047   2.207  15.573
  825SOL    HW1 5474   6.072   2.120  15.532
  825SOL    HW2 5475   6.117   2.276  15.551
  826SOL     OW 5476   3.498   5.681  14.682
  826SOL    HW1 5477   3.462   5.590  14.662
  826SOL    HW2 5478   3.597   5.677  14.692
  827SOL     OW 5479   4.198   5.664  14.655
  827SOL    HW1 5480   4.294   5.639  14.657
  827SOL    HW2 5481   4.189   5.764  14.652
  828SOL     OW 5482   6.121   2.503  13.450
  828SOL    HW1 5483   6.176   2.586  13.458
  828SOL    HW2 5484   6.162   2.430  13.503
  829SOL     OW 5485   2.400   5.279  13.152
  829SOL    HW1 5486   2.383   5.194  13.201
  829SOL    HW2 5487   2.393   5.263  13.054
  830SOL     OW 5488   2.572   5.850  11.115
  830SOL    HW1 5489   2.510   5.782  11.075
  830SOL    HW2 5490   2.560   5.937  11.066
  831SOL     OW 5491   5.905   0.576  15.888
  831SOL    HW1 5492   5.826   0.552  15.831
  831SOL    HW2 5493   5.968   0.498  15.892
  832SOL     OW 5494   3.397   0.648  12.081
  832SOL    HW1 5495   3.348   0.611  12.160
  832SOL    HW2 5496   3.373   0.596  12.000
  833SOL     OW 5497   4.575   4.534  15.231
  833SOL    HW1 5498   4.675   4.527  15.230
  833SOL    HW2 5499   4.549   4.631  15.230
  834SOL     OW 5500   0.175   3.565  12.454
  834SOL    HW1 5501   0.228   3.486  12.423
  834SOL    HW2 5502   0.167   3.631  12.379
  835SOL     OW 5503   3.181   1.375  15.772
  835SOL    HW1 5504   3.235   1.456  15.792
  835SOL    HW2 5505   3.228   1.293  15.806
  836SOL     OW 5506   2.671   2.010  14.879
  836SOL    HW1 5507   2.580   2.052  14.889
  836SOL    HW2 5508   2.678   1.930  14.939
  837SOL     OW 5509   0.386   5.921  13.995
  837SOL    HW1 5510   0.461   5.973  14.037
  837SOL    HW2 5511   0.394   5.824  14.021
  838SOL     OW 5512   4.531   1.472  15.233
  838SOL    HW1 5513   4.493   1.379  15.227
  838SOL    HW2 5514   4.630   1.467  15.242
  839SOL     OW 5515   3.685   5.213  11.595
  839SOL    HW1 5516   3.609   5.246  11.651
  839SOL    HW2 5517   3.719   5.288  11.538
  840SOL     OW 5518   4.193   2.109  11.632
  840SOL    HW1 5519   4.122   2.180  11.637
  840SOL    HW2 5520   4.170   2.035  11.696
  841SOL     OW 5521   4.351   5.859  11.288
  841SOL    HW1 5522   4.320   5.906  11.206
  841SOL    HW2 5523   4.411   5.920  11.340
  842SOL     OW 5524   0.189   4.908  11.990
  842SOL    HW1 5525   0.105   4.930  11.940
  842SOL    HW2 5526   0.169   4.840  12.060
  843SOL     OW 5527   3.133   1.187  14.064
  843SOL    HW1 5528   3.220   1.232  14.044
  843SOL    HW2 5529   3.145   1.088  14.062
  844SOL     OW 5530   4.140   3.099  15.628
  844SOL    HW1 5531   4.106   3.045  15.705
  844SOL    HW2 5532   4.207   3.046  15.576
  845SOL     OW 5533   4.541   6.105  13.214
  845SOL    HW1 5534   4.467   6.052  13.255
  845SOL    HW2 5535   4.559   6.070  13.122
  846SOL     OW 5536   4.464   1.049  15.084
  846SOL    HW1 5537   4.450   1.146  15.068
  846SOL    HW2 5538   4.399   0.996  15.030
  847SOL     OW 5539   5.795   4.151  13.788
  847SOL    HW1 5540   5.819   4.054  13.789
  847SOL    HW2 5541   5.879   4.205  13.800
  848SOL     OW 5542   2.876   1.849  15.451
  848SOL    HW1 5543   2.883   1.858  15.352
  848SOL    HW2 5544   2.789   1.886  15.483
  849SOL     OW 5545   1.910   2.316  15.839
  849SOL    HW1 5546   1.987   2.376  15.860
  849SOL    HW2 5547   1.825   2.359  15.871
  850SOL     OW 5548   0.771   3.556  11.275
  850SOL    HW1 5549   0.671   3.557  11.281
  850SOL    HW2 5550   0.806   3.649  11.272
  851SOL     OW 5551   0.172   0.347  14.994
  851SOL    HW1 5552   0.249   0.373  14.937
  851SOL    HW2 5553   0.190   0.258  15.036
  852SOL     OW 5554   4.773   2.927  15.103
  852SOL    HW1 5555   4.854   2.985  15.097
  852SOL    HW2 5556   4.799   2.832  15.092
  853SOL     OW 5557   3.376   4.229  12.522
  853SOL    HW1 5558   3.278   4.239  12.539
  853SOL    HW2 5559   3.417   4.176  12.596
  854SOL     OW 5560   5.754   4.585  15.166
  854SOL    HW1 5561   5.759   4.684  15.154
  854SOL    HW2 5562   5.709   4.564  15.253
  855SOL     OW 5563   3.264   0.068  13.310
  855SOL    HW1 5564   3.200   0.109  13.244
  855SOL    HW2 5565   3.358   0.087  13.281
  856SOL     OW 5566   5.922   6.267  13.058
  856SOL    HW1 5567   5.855   6.339  13.043
  856SOL    HW2 5568   5.909   6.194  12.991
  857SOL     OW 5569   5.570   4.444  13.234
  857SOL    HW1 5570   5.490   4.451  13.294
  857SOL    HW2 5571   5.541   4.450  13.139
  858SOL     OW 5572   3.384   4.262  12.873
  858SOL    HW1 5573   3.411   4.282  12.967
  858SOL    HW2 5574   3.449   4.303  12.809
  859SOL     OW 5575   5.529   5.627  12.448
  859SOL    HW1 5576   5.517   5.689  12.371
  859SOL    HW2 5577   5.485   5.666  12.529
  860SOL     OW 5578   4.213   2.734  14.231
  860SOL    HW1 5579   4.263   2.690  14.305
  860SOL    HW2 5580   4.165   2.815  14.267
  861SOL     OW 5581   2.014   1.074  12.823
  861SOL    HW1 5582   1.922   1.049  12.794
  861SOL    HW2 5583   2.033   1.169  12.799
  862SOL     OW 5584   2.121   6.202  14.411
  862SOL    HW1 5585   2.074   6.271  14.356
  862SOL    HW2 5586   2.062   6.122  14.421
  863SOL     OW 5587   3.148   0.193  12.779
  863SOL    HW1 5588   3.072   0.251  12.810
  863SOL    HW2 5589   3.114   0.100  12.762
  864SOL     OW 5590   2.829   5.757  13.568
  864SOL    HW1 5591   2.815   5.658  13.562
  864SOL    HW2 5592   2.743   5.805  13.551
  865SOL     OW 5593   6.212   0.794  12.220
  865SOL    HW1 5594   6.177   0.848  12.143
  865SOL    HW2 5595   6.310   0.809  12.230
  866SOL     OW 5596   3.328   2.578  14.638
  866SOL    HW1 5597   3.347   2.484  14.667
  866SOL    HW2 5598   3.345   2.586  14.540
  867SOL     OW 5599   0.727   5.916  14.109
  867SOL    HW1 5600   0.682   6.005  14.120
  867SOL    HW2 5601   0.658   5.844  14.101
  868SOL     OW 5602   0.170   3.218  11.054
  868SOL    HW1 5603   0.261   3.261  11.054
  868SOL    HW2 5604   0.100   3.290  11.054
  869SOL     OW 5605   1.911   4.046  13.688
  869SOL    HW1 5606   1.888   4.093  13.603
  869SOL    HW2 5607   1.911   3.947  13.674
  870SOL     OW 5608   1.021   5.928  14.860
  870SOL    HW1 5609   0.950   5.859  14.842
  870SOL    HW2 5610   0.980   6.019  14.858
  871SOL     OW 5611   4.020   0.917  11.502
  871SOL    HW1 5612   4.105   0.901  11.553
  871SOL    HW2 5613   4.041   0.928  11.405
  872SOL     OW 5614   2.417   5.959  12.172
  872SOL    HW1 5615   2.381   5.969  12.265
  872SOL    HW2 5616   2.359   5.896  12.121
  873SOL     OW 5617   5.047   1.814  13.856
  873SOL    HW1 5618   5.124   1.871  13.827
  873SOL    HW2 5619   4.963   1.847  13.814
  874SOL     OW 5620   3.638   1.995  15.082
  874SOL    HW1 5621   3.589   2.076  15.113
  874SOL    HW2 5622   3.660   1.938  15.161
  875SOL     OW 5623   3.944   2.444  13.382
  875SOL    HW1 5624   3.886   2.373  13.344
  875SOL    HW2 5625   3.917   2.463  13.477
  876SOL     OW 5626   3.582   3.681  11.313
  876SOL    HW1 5627   3.677   3.682  11.343
  876SOL    HW2 5628   3.535   3.763  11.345
  877SOL     OW 5629   5.900   0.561  13.872
  877SOL    HW1 5630   5.856   0.649  13.889
  877SOL    HW2 5631   5.994   0.564  13.905
  878SOL     OW 5632   2.663   1.203  15.748
  878SOL    HW1 5633   2.738   1.157  15.797
  878SOL    HW2 5634   2.681   1.301  15.743
  879SOL     OW 5635   0.740   4.889  11.401
  879SOL    HW1 5636   0.704   4.964  11.456
  879SOL    HW2 5637   0.665   4.826  11.379
  880SOL     OW 5638   4.306   0.212  14.238
  880SOL    HW1 5639   4.378   0.153  14.198
  880SOL    HW2 5640   4.343   0.304  14.251
  881SOL     OW 5641   3.154   1.474  14.176
  881SOL    HW1 5642   3.127   1.569  14.193
  881SOL    HW2 5643   3.252   1.469  14.159
  882SOL     OW 5644   1.193   2.020  11.557
  882SOL    HW1 5645   1.274   2.079  11.551
  882SOL    HW2 5646   1.166   1.990  11.465
  883SOL     OW 5647   4.969   2.779  11.239
  883SOL    HW1 5648   5.006   2.806  11.150
  883SOL    HW2 5649   4.949   2.681  11.238
  884SOL     OW 5650   3.731   4.350  15.111
  884SOL    HW1 5651   3.663   4.422  15.101
  884SOL    HW2 5652   3.697   4.281  15.175
  885SOL     OW 5653   1.136   5.133  15.052
  885SOL    HW1 5654   1.109   5.228  15.038
  885SOL    HW2 5655   1.177   5.123  15.144
  886SOL     OW 5656   1.478   0.556  12.392
  886SOL    HW1 5657   1.433   0.626  12.447
  886SOL    HW2 5658   1.566   0.532  12.432
  887SOL     OW 5659   5.945   3.984  12.294
  887SOL    HW1 5660   5.968   3.916  12.363
  887SOL    HW2 5661   5.938   3.940  12.204
  888SOL     OW 5662   5.155   0.377  11.321
  888SOL    HW1 5663   5.246   0.366  11.279
  888SOL    HW2 5664   5.135   0.298  11.378
  889SOL     OW 5665   2.985   6.287  12.311
  889SOL    HW1 5666   2.904   6.340  12.285
  889SOL    HW2 5667   3.068   6.340  12.290
  890SOL     OW 5668   6.138   6.085  13.154
  890SOL    HW1 5669   6.169   6.180  13.147
  890SOL    HW2 5670   6.215   6.027  13.182
  891SOL     OW 5671   4.202   4.337  11.932
  891SOL    HW1 5672   4.221   4.239  11.934
  891SOL    HW2 5673   4.288   4.387  11.928
  892SOL     OW 5674   2.166   2.257  11.854
  892SOL    HW1 5675   2.136   2.217  11.768
  892SOL    HW2 5676   2.126   2.208  11.931
  893SOL     OW 5677   5.538   4.145  12.470
  893SOL    HW1 5678   5.571   4.237  12.493
  893SOL    HW2 5679   5.595   4.077  12.517
  894SOL     OW 5680   3.956   2.681  15.712
  894SOL    HW1 5681   3.893   2.603  15.715
  894SOL    HW2 5682   3.904   2.766  15.712
  895SOL     OW 5683   2.930   0.819  14.522
  895SOL    HW1 5684   2.867   0.746  14.552
  895SOL    HW2 5685   2.878   0.903  14.507
  896SOL     OW 5686   4.728   1.484  15.670
  896SOL    HW1 5687   4.740   1.469  15.768
  896SOL    HW2 5688   4.811   1.458  15.621
  897SOL     OW 5689   0.712   4.071  12.455
  897SOL    HW1 5690   0.773   4.047  12.530
  897SOL    HW2 5691   0.728   4.166  12.428
  898SOL     OW 5692   4.831   2.468  15.280
  898SOL    HW1 5693   4.924   2.435  15.266
  898SOL    HW2 5694   4.821   2.503  15.373
  899SOL     OW 5695   6.274   3.319  15.976
  899SOL    HW1 5696   6.192   3.348  15.927
  899SOL    HW2 5697   6.266   3.223  16.000
  900SOL     OW 5698   5.208   3.930  12.511
  900SOL    HW1 5699   5.121   3.881  12.517
  900SOL    HW2 5700   5.190   4.029  12.516
  901SOL     OW 5701   0.150   5.835  12.074
  901SOL    HW1 5702   0.077   5.767  12.081
  901SOL    HW2 5703   0.238   5.789  12.080
  902SOL     OW 5704   2.681   2.655  12.081
  902SOL    HW1 5705   2.606   2.715  12.052
  902SOL    HW2 5706   2.764   2.710  12.093
  903SOL     OW 5707   3.298   2.404  11.360
  903SOL    HW1 5708   3.384   2.455  11.365
  903SOL    HW2 5709   3.303   2.325  11.421
  904SOL     OW 5710   2.936   0.486  11.947
  904SOL    HW1 5711   2.905   0.391  11.956
  904SOL    HW2 5712   2.909   0.537  12.028
  905SOL     OW 5713   3.227   0.839  13.596
  905SOL    HW1 5714   3.262   0.909  13.533
  905SOL    HW2 5715   3.304   0.788  13.635
  906SOL     OW 5716   2.431   0.129  11.492
  906SOL    HW1 5717   2.484   0.145  11.409
  906SOL    HW2 5718   2.461   0.192  11.564
  907SOL     OW 5719   5.531   1.230  13.307
  907SOL    HW1 5720   5.597   1.305  13.308
  907SOL    HW2 5721   5.443   1.262  13.272
  908SOL     OW 5722   3.029   0.755  14.712
  908SOL    HW1 5723   3.113   0.776  14.762
  908SOL    HW2 5724   2.978   0.683  14.760
  909SOL     OW 5725   3.429   5.404  11.585
  909SOL    HW1 5726   3.341   5.386  11.542
  909SOL    HW2 5727   3.491   5.446  11.517
  910SOL     OW 5728   4.396   4.757  14.535
  910SOL    HW1 5729   4.369   4.831  14.474
  910SOL    HW2 5730   4.343   4.763  14.620
  911SOL     OW 5731   1.640   0.779  12.581
  911SOL    HW1 5732   1.572   0.712  12.610
  911SOL    HW2 5733   1.682   0.822  12.661
  912SOL     OW 5734   2.290   1.309  15.152
  912SOL    HW1 5735   2.253   1.241  15.215
  912SOL    HW2 5736   2.275   1.401  15.189
  913SOL     OW 5737   2.720   4.061  13.836
  913SOL    HW1 5738   2.706   4.040  13.739
  913SOL    HW2 5739   2.659   4.003  13.891
  914SOL     OW 5740   2.469   6.286  14.012
  914SOL    HW1 5741   2.470   6.187  14.015
  914SOL    HW2 5742   2.376   6.319  13.999
  915SOL     OW 5743   1.708   4.219  12.825
  915SOL    HW1 5744   1.633   4.154  12.813
  915SOL    HW2 5745   1.796   4.171  12.814
  916SOL     OW 5746   5.464   6.125  14.695
  916SOL    HW1 5747   5.453   6.104  14.598
  916SOL    HW2 5748   5.529   6.060  14.735
  917SOL     OW 5749   0.924   3.398  13.931
  917SOL    HW1 5750   0.904   3.494  13.909
  917SOL    HW2 5751   0.839   3.346  13.936
  918SOL     OW 5752   0.814   5.159  11.155
  918SOL    HW1 5753   0.904   5.148  11.198
  918SOL    HW2 5754   0.751   5.200  11.220
  919SOL     OW 5755   1.896   2.191  13.287
  919SOL    HW1 5756   1.812   2.244  13.287
  919SOL    HW2 5757   1.878   2.098  13.319
  920SOL     OW 5758   5.687   4.693  11.051
  920SOL    HW1 5759   5.780   4.696  11.087
  920SOL    HW2 5760   5.624   4.729  11.120
  921SOL     OW 5761   0.139   0.964  12.678
  921SOL    HW1 5762   0.181   1.051  12.653
  921SOL    HW2 5763   0.199   0.915  12.741
  922SOL     OW 5764   1.180   4.885  12.765
  922SOL    HW1 5765   1.117   4.807  12.762
  922SOL    HW2 5766   1.141   4.962  12.714
  923SOL     OW 5767   2.565   5.554  13.068
  923SOL    HW1 5768   2.665   5.543  13.071
  923SOL    HW2 5769   2.539   5.633  13.122
  924SOL     OW 5770   1.494   5.243  14.413
  924SOL    HW1 5771   1.589   5.245  14.382
  924SOL    HW2 5772   1.471   5.150  14.443
  925SOL     OW 5773   0.873   4.989  14.503
  925SOL    HW1 5774   0.802   5.059  14.508
  925SOL    HW2 5775   0.961   5.032  14.479
  926SOL     OW 5776   4.787   4.675  11.600
  926SOL    HW1 5777   4.720   4.748  11.613
  926SOL    HW2 5778   4.879   4.713  11.609
  927SOL     OW 5779   4.049   5.509  13.200
  927SOL    HW1 5780   3.953   5.505  13.226
  927SOL    HW2 5781   4.066   5.592  13.148
  928SOL     OW 5782   4.835   2.950  13.829
  928SOL    HW1 5783   4.916   2.985  13.877
  928SOL    HW2 5784   4.795   3.022  13.773
  929SOL     OW 5785   2.926   5.417  12.295
  929SOL    HW1 5786   2.836   5.459  12.305
  929SOL    HW2 5787   2.919   5.318  12.309
  930SOL     OW 5788   1.621   1.267  12.849
  930SOL    HW1 5789   1.691   1.252  12.780
  930SOL    HW2 5790   1.628   1.361  12.884
  931SOL     OW 5791   0.473   6.173  11.564
  931SOL    HW1 5792   0.394   6.235  11.565
  931SOL    HW2 5793   0.440   6.078  11.562
  932SOL     OW 5794   0.222   2.398  15.259
  932SOL    HW1 5795   0.297   2.441  15.309
  932SOL    HW2 5796   0.199   2.310  15.301
  933SOL     OW 5797   1.976   5.312  15.320
  933SOL    HW1 5798   1.891   5.361  15.341
  933SOL    HW2 5799   2.002   5.256  15.399
  934SOL     OW 5800   2.292   5.631  14.672
  934SOL    HW1 5801   2.346   5.593  14.746
  934SOL    HW2 5802   2.347   5.696  14.620
  935SOL     OW 5803   0.525   2.542  14.083
  935SOL    HW1 5804   0.521   2.474  14.156
  935SOL    HW2 5805   0.447   2.604  14.090
  936SOL     OW 5806   1.933   5.048  12.487
  936SOL    HW1 5807   1.857   5.112  12.475
  936SOL    HW2 5808   2.020   5.098  12.485
  937SOL     OW 5809   2.407   5.648  11.549
  937SOL    HW1 5810   2.431   5.687  11.638
  937SOL    HW2 5811   2.371   5.555  11.562
  938SOL     OW 5812   4.129   4.405  15.481
  938SOL    HW1 5813   4.138   4.316  15.524
  938SOL    HW2 5814   4.209   4.423  15.424
  939SOL     OW 5815   5.118   4.290  13.811
  939SOL    HW1 5816   5.171   4.374  13.823
  939SOL    HW2 5817   5.176   4.211  13.826
  940SOL     OW 5818   1.196   1.371  11.876
  940SOL    HW1 5819   1.211   1.463  11.913
  940SOL    HW2 5820   1.248   1.305  11.928
  941SOL     OW 5821   2.314   1.334  14.730
  941SOL    HW1 5822   2.330   1.237  14.742
  941SOL    HW2 5823   2.370   1.386  14.794
  942SOL     OW 5824   5.991   4.045  12.928
  942SOL    HW1 5825   5.914   3.981  12.926
  942SOL    HW2 5826   6.077   3.994  12.928
  943SOL     OW 5827   3.027   5.526  13.564
  943SOL    HW1 5828   3.110   5.510  13.510
  943SOL    HW2 5829   3.012   5.450  13.627
  944SOL     OW 5830   2.875   3.257  11.851
  944SOL    HW1 5831   2.925   3.265  11.936
  944SOL    HW2 5832   2.898   3.171  11.806
  945SOL     OW 5833   4.749   5.154  11.442
  945SOL    HW1 5834   4.663   5.134  11.395
  945SOL    HW2 5835   4.814   5.081  11.426
  946SOL     OW 5836   6.084   3.018  11.114
  946SOL    HW1 5837   5.993   3.056  11.101
  946SOL    HW2 5838   6.123   3.052  11.200
  947SOL     OW 5839   1.635   4.871  14.276
  947SOL    HW1 5840   1.717   4.898  14.325
  947SOL    HW2 5841   1.568   4.833  14.340
  948SOL     OW 5842   4.341   3.072  15.822
  948SOL    HW1 5843   4.376   3.128  15.897
  948SOL    HW2 5844   4.415   3.054  15.757
  949SOL     OW 5845   3.245   5.029  12.128
  949SOL    HW1 5846   3.145   5.039  12.129
  949SOL    HW2 5847   3.269   4.935  12.151
  950SOL     OW 5848   3.709   4.382  11.819
  950SOL    HW1 5849   3.651   4.303  11.840
  950SOL    HW2 5850   3.710   4.397  11.721
  951SOL     OW 5851   4.995   4.023  12.166
  951SOL    HW1 5852   5.010   3.966  12.085
  951SOL    HW2 5853   4.913   4.079  12.153
  952SOL     OW 5854   2.648   5.291  15.644
  952SOL    HW1 5855   2.564   5.269  15.596
  952SOL    HW2 5856   2.707   5.211  15.647
  953SOL     OW 5857   4.755   1.473  11.380
  953SOL    HW1 5858   4.799   1.383  11.375
  953SOL    HW2 5859   4.826   1.543  11.385
  954SOL     OW 5860   3.503   1.296  13.277
  954SOL    HW1 5861   3.574   1.367  13.282
  954SOL    HW2 5862   3.415   1.339  13.253
  955SOL     OW 5863   1.120   1.885  11.269
  955SOL    HW1 5864   1.022   1.894  11.286
  955SOL    HW2 5865   1.142   1.926  11.180
  956SOL     OW 5866   2.395   2.174  13.579
  956SOL    HW1 5867   2.342   2.117  13.515
  956SOL    HW2 5868   2.493   2.153  13.568
  957SOL     OW 5869   5.019   4.851  12.426
  957SOL    HW1 5870   5.087   4.925  12.428
  957SOL    HW2 5871   5.066   4.763  12.425
  958SOL     OW 5872   2.237   1.951  13.721
  958SOL    HW1 5873   2.318   2.009  13.722
  958SOL    HW2 5874   2.155   2.007  13.712
  959SOL     OW 5875   0.742   3.811  15.795
  959SOL    HW1 5876   0.743   3.910  15.809
  959SOL    HW2 5877   0.648   3.780  15.785
  960SOL     OW 5878   1.779   4.077  15.621
  960SOL    HW1 5879   1.747   3.983  15.613
  960SOL    HW2 5880   1.878   4.080  15.610
  961SOL     OW 5881   5.989   4.448  13.555
  961SOL    HW1 5882   5.957   4.535  13.591
  961SOL    HW2 5883   5.921   4.376  13.573
  962SOL     OW 5884   0.784   5.930  11.904
  962SOL    HW1 5885   0.831   5.842  11.910
  962SOL    HW2 5886   0.851   6.004  11.906
  963SOL     OW 5887   0.604   0.452  13.249
  963SOL    HW1 5888   0.547   0.402  13.184
  963SOL    HW2 5889   0.555   0.533  13.281
  964SOL     OW 5890   0.944   1.921  11.788
  964SOL    HW1 5891   0.878   1.893  11.718
  964SOL    HW2 5892   0.916   1.883  11.877
  965SOL     OW 5893   3.085   5.438  12.589
  965SOL    HW1 5894   3.169   5.385  12.585
  965SOL    HW2 5895   3.007   5.377  12.594
  966SOL     OW 5896   4.303   1.445  12.050
  966SOL    HW1 5897   4.214   1.426  12.092
  966SOL    HW2 5898   4.339   1.362  12.007
  967SOL     OW 5899   0.428   2.641  14.911
  967SOL    HW1 5900   0.502   2.692  14.956
  967SOL    HW2 5901   0.460   2.549  14.887
  968SOL     OW 5902   5.988   3.550  11.227
  968SOL    HW1 5903   6.053   3.518  11.159
  968SOL    HW2 5904   6.003   3.501  11.313
  969SOL     OW 5905   5.316   3.646  13.831
  969SOL    HW1 5906   5.225   3.686  13.829
  969SOL    HW2 5907   5.384   3.718  13.848
  970SOL     OW 5908   2.454   1.354  14.182
  970SOL    HW1 5909   2.550   1.352  14.210
  970SOL    HW2 5910   2.395   1.341  14.262
  971SOL     OW 5911   3.893   3.087  11.161
  971SOL    HW1 5912   3.932   3.002  11.197
  971SOL    HW2 5913   3.936   3.165  11.205
  972SOL     OW 5914   3.191   5.505  14.893
  972SOL    HW1 5915   3.174   5.518  14.796
  972SOL    HW2 5916   3.274   5.451  14.906
  973SOL     OW 5917   1.030   4.059  12.611
  973SOL    HW1 5918   1.000   4.069  12.516
  973SOL    HW2 5919   1.059   4.148  12.647
  974SOL     OW 5920   3.057   2.432  15.245
  974SOL    HW1 5921   2.979   2.420  15.184
  974SOL    HW2 5922   3.128   2.484  15.197
  975SOL     OW 5923   4.303   6.065  14.738
  975SOL    HW1 5924   4.334   6.160  14.727
  975SOL    HW2 5925   4.383   6.005  14.749
  976SOL     OW 5926   0.904   3.435  13.376
  976SOL    HW1 5927   0.811   3.400  13.382
  976SOL    HW2 5928   0.969   3.359  13.373
  977SOL     OW 5929   3.370   0.546  11.606
  977SOL    HW1 5930   3.444   0.609  11.585
  977SOL    HW2 5931   3.285   0.597  11.620
  978SOL     OW 5932   0.333   1.980  13.307
  978SOL    HW1 5933   0.399   1.910  13.338
  978SOL    HW2 5934   0.241   1.954  13.335
  979SOL     OW 5935   1.554   3.173  14.187
  979SOL    HW1 5936   1.572   3.079  14.215
  979SOL    HW2 5937   1.595   3.236  14.253
  980SOL     OW 5938   5.776   3.853  12.040
  980SOL    HW1 5939   5.685   3.894  12.033
  980SOL    HW2 5940   5.767   3.754  12.053
  981SOL     OW 5941   5.579   1.457  15.209
  981SOL    HW1 5942   5.569   1.434  15.113
  981SOL    HW2 5943   5.489   1.469  15.251
  982SOL     OW 5944   4.765   5.087  12.221
  982SOL    HW1 5945   4.701   5.076  12.145
  982SOL    HW2 5946   4.856   5.056  12.193
  983SOL     OW 5947   3.736   5.678  13.933
  983SOL    HW1 5948   3.770   5.586  13.921
  983SOL    HW2 5949   3.636   5.676  13.942
  984SOL     OW 5950   4.391   4.003  11.102
  984SOL    HW1 5951   4.476   4.048  11.072
  984SOL    HW2 5952   4.324   4.073  11.126
  985SOL     OW 5953   2.605   1.121  14.861
  985SOL    HW1 5954   2.534   1.050  14.857
  985SOL    HW2 5955   2.562   1.211  14.864
  986SOL     OW 5956   4.135   3.125  15.318
  986SOL    HW1 5957   4.111   3.048  15.259
  986SOL    HW2 5958   4.076   3.203  15.297
  987SOL     OW 5959   0.902   4.495  12.042
  987SOL    HW1 5960   0.934   4.414  11.992
  987SOL    HW2 5961   0.980   4.546  12.077
  988SOL     OW 5962   3.772   4.380  15.371
  988SOL    HW1 5963   3.773   4.480  15.373
  988SOL    HW2 5964   3.682   4.348  15.400
  989SOL     OW 5965   4.034   5.268  15.232
  989SOL    HW1 5966   3.939   5.244  15.252
  989SOL    HW2 5967   4.080   5.190  15.190
  990SOL     OW 5968   1.084   1.139  14.216
  990SOL    HW1 5969   0.985   1.126  14.208
  990SOL    HW2 5970   1.105   1.237  14.222
  991SOL     OW 5971   1.709   6.109  14.397
  991SOL    HW1 5972   1.701   6.202  14.433
  991SOL    HW2 5973   1.792   6.066  14.434
  992SOL     OW 5974   3.809   3.402  14.606
  992SOL    HW1 5975   3.747   3.478  14.623
  992SOL    HW2 5976   3.763   3.333  14.551
  993SOL     OW 5977   5.538   3.533  12.295
  993SOL    HW1 5978   5.537   3.633  12.299
  993SOL    HW2 5979   5.445   3.498  12.292
  994SOL     OW 5980   0.770   4.000  15.592
  994SOL    HW1 5981   0.789   4.098  15.583
  994SOL    HW2 5982   0.855   3.948  15.581
  995SOL     OW 5983   1.329   3.399  15.200
  995SOL    HW1 5984   1.256   3.430  15.260
  995SOL    HW2 5985   1.361   3.475  15.144
  996SOL     OW 5986   2.727   2.516  15.591
  996SOL    HW1 5987   2.760   2.610  15.597
  996SOL    HW2 5988   2.804   2.454  15.580
  997SOL     OW 5989   5.740   3.999  11.105
  997SOL    HW1 5990   5.651   4.045  11.114
  997SOL    HW2 5991   5.813   4.066  11.116
  998SOL     OW 5992   3.379   2.154  13.717
  998SOL    HW1 5993   3.311   2.137  13.789
  998SOL    HW2 5994   3.382   2.252  13.697
  999SOL     OW 5995   4.026   6.065  14.611
  999SOL    HW1 5996   3.968   6.028  14.683
  999SOL    HW2 5997   4.013   6.164  14.606
 1000SOL     OW 5998   5.065   2.454  12.359
 1000SOL    HW1 5999   5.104   2.534  12.314
 1000SOL    HW2 6000   5.139   2.395  12.393
    1POPC   CN1 6001   4.838   6.145   5.245
    1POPC   CN2 6002   4.996   6.241   5.400
    1POPC   CN3 6003   4.994   6.298   5.153
    1POPC   NTM 6004   4.979   6.188   5.258
    1POPC    CA 6005   5.076   6.069   5.219
    1POPC    CB 6006   5.225   6.119   5.226
    1POPC    OA 6007   5.253   6.164   5.359
    1POPC     P 6008   5.399   6.196   5.400
    1POPC    OB 6009   5.393   6.340   5.408
    1POPC    OC 6010   5.494   6.132   5.310
    1POPC    OD 6011   5.407   6.136   5.546
    1POPC    CC 6012   5.333   6.028   5.596
    1POPC    CD 6013   5.202   6.065   5.661
    1POPC    OE 6014   5.230   6.130   5.783
    1POPC   C1A 6015   5.129   6.200   5.835
    1POPC    OF 6016   5.019   6.221   5.783
    1POPC   C1B 6017   5.185   6.265   5.960
    1POPC   C1C 6018   5.083   6.341   6.050
    1POPC   C1D 6019   5.005   6.238   6.134
    1POPC   C1E 6020   4.931   6.296   6.252
    1POPC   C1F 6021   4.830   6.199   6.318
    1POPC   C1G 6022   4.788   6.265   6.453
    1POPC   C1H 6023   4.718   6.159   6.541
    1POPC   C1I 6024   4.662   6.246   6.655
    1POPC   C1J 6025   4.688   6.231   6.783
    1POPC   C1K 6026   4.780   6.140   6.850
    1POPC   C1L 6027   4.765   6.115   7.005
    1POPC   C1M 6028   4.637   6.031   7.023
    1POPC   C1N 6029   4.613   5.972   7.163
    1POPC   C1O 6030   4.644   6.063   7.287
    1POPC   C1P 6031   4.604   6.010   7.417
    1POPC   C1Q 6032   4.697   5.899   7.472
    1POPC   C1R 6033   4.634   5.830   7.600
    1POPC    CE 6034   5.107   5.951   5.671
    1POPC    OG 6035   5.160   5.845   5.753
    1POPC   C2A 6036   5.109   5.829   5.873
    1POPC    OH 6037   5.010   5.886   5.918
    1POPC   C2B 6038   5.187   5.726   5.949
    1POPC   C2C 6039   5.182   5.759   6.101
    1POPC   C2D 6040   5.275   5.675   6.184
    1POPC   C2E 6041   5.271   5.701   6.341
    1POPC   C2F 6042   5.361   5.612   6.431
    1POPC   C2G 6043   5.347   5.646   6.584
    1POPC   C2H 6044   5.451   5.570   6.668
    1POPC   C2I 6045   5.433   5.608   6.818
    1POPC   C2J 6046   5.548   5.555   6.904
    1POPC   C2K 6047   5.529   5.619   7.041
    1POPC   C2L 6048   5.629   5.563   7.143
    1POPC   C2M 6049   5.653   5.658   7.261
    1POPC   C2N 6050   5.722   5.583   7.372
    1POPC   C2O 6051   5.755   5.673   7.491
    1POPC   C2P 6052   5.833   5.599   7.600
    2POPC   CN1 6053   0.565   4.463   5.276
    2POPC   CN2 6054   0.405   4.607   5.387
    2POPC   CN3 6055   0.428   4.596   5.135
    2POPC   NTM 6056   0.502   4.596   5.269
    2POPC    CA 6057   0.613   4.709   5.264
    2POPC    CB 6058   0.545   4.849   5.248
    2POPC    OA 6059   0.457   4.871   5.360
    2POPC     P 6060   0.395   5.012   5.383
    2POPC    OB 6061   0.258   4.986   5.345
    2POPC    OC 6062   0.471   5.115   5.312
    2POPC    OD 6063   0.405   5.029   5.539
    2POPC    CC 6064   0.501   4.970   5.623
    2POPC    CD 6065   0.463   4.835   5.679
    2POPC    OE 6066   0.361   4.855   5.774
    2POPC   C1A 6067   0.292   4.746   5.806
    2POPC    OF 6068   0.302   4.633   5.756
    2POPC   C1B 6069   0.184   4.792   5.903
    2POPC   C1C 6070   0.098   4.681   5.970
    2POPC   C1D 6071   0.179   4.617   6.085
    2POPC   C1E 6072   0.097   4.536   6.183
    2POPC   C1F 6073   0.182   4.451   6.280
    2POPC   C1G 6074   0.083   4.400   6.390
    2POPC   C1H 6075   0.164   4.346   6.509
    2POPC   C1I 6076   0.054   4.279   6.593
    2POPC   C1J 6077   0.025   4.307   6.718
    2POPC   C1K 6078   0.079   4.411   6.806
    2POPC   C1L 6079   0.056   4.400   6.962
    2POPC   C1M 6080   0.146   4.285   7.010
    2POPC   C1N 6081   0.161   4.270   7.163
    2POPC   C1O 6082   0.033   4.288   7.251
    2POPC   C1P 6083   0.048   4.256   7.392
    2POPC   C1Q 6084   0.123   4.364   7.475
    2POPC   C1R 6085   0.156   4.311   7.620
    2POPC    CE 6086   0.580   4.758   5.728
    2POPC    OG 6087   0.647   4.824   5.837
    2POPC   C2A 6088   0.632   4.777   5.957
    2POPC    OH 6089   0.576   4.671   5.988
    2POPC   C2B 6090   0.695   4.868   6.058
    2POPC   C2C 6091   0.617   4.860   6.192
    2POPC   C2D 6092   0.658   4.963   6.293
    2POPC   C2E 6093   0.585   4.956   6.435
    2POPC   C2F 6094   0.629   5.058   6.543
    2POPC   C2G 6095   0.553   5.040   6.679
    2POPC   C2H 6096   0.584   5.153   6.777
    2POPC   C2I 6097   0.504   5.130   6.909
    2POPC   C2J 6098   0.512   5.252   7.002
    2POPC   C2K 6099   0.412   5.225   7.114
    2POPC   C2L 6100   0.420   5.332   7.223
    2POPC   C2M 6101   0.290   5.343   7.305
    2POPC   C2N 6102   0.317   5.422   7.430
    2POPC   C2O 6103   0.192   5.443   7.514
    2POPC   C2P 6104   0.218   5.531   7.636
    3POPC   CN1 6105   5.047   2.176   5.253
    3POPC   CN2 6106   5.080   1.972   5.379
    3POPC   CN3 6107   5.068   1.976   5.126
    3POPC   NTM 6108   5.012   2.032   5.257
    3POPC    CA 6109   4.854   2.015   5.254
    3POPC    CB 6110   4.818   1.863   5.249
    3POPC    OA 6111   4.872   1.799   5.366
    3POPC     P 6112   4.831   1.653   5.400
    3POPC    OB 6113   4.954   1.583   5.368
    3POPC    OC 6114   4.707   1.616   5.333
    3POPC    OD 6115   4.814   1.658   5.556
    3POPC    CC 6116   4.776   1.770   5.633
    3POPC    CD 6117   4.892   1.854   5.682
    3POPC    OE 6118   4.959   1.782   5.783
    3POPC   C1A 6119   5.082   1.825   5.811
    3POPC    OF 6120   5.145   1.914   5.754
    3POPC   C1B 6121   5.136   1.729   5.915
    3POPC   C1C 6122   5.273   1.765   5.980
    3POPC   C1D 6123   5.251   1.873   6.086
    3POPC   C1E 6124   5.366   1.892   6.183
    3POPC   C1F 6125   5.355   2.018   6.270
    3POPC   C1G 6126   5.464   2.003   6.381
    3POPC   C1H 6127   5.436   2.106   6.494
    3POPC   C1I 6128   5.563   2.094   6.578
    3POPC   C1J 6129   5.569   2.064   6.706
    3POPC   C1K 6130   5.462   2.023   6.798
    3POPC   C1L 6131   5.487   2.030   6.953
    3POPC   C1M 6132   5.491   2.179   6.990
    3POPC   C1N 6133   5.489   2.211   7.141
    3POPC   C1O 6134   5.576   2.123   7.236
    3POPC   C1P 6135   5.586   2.168   7.374
    3POPC   C1Q 6136   5.460   2.138   7.460
    3POPC   C1R 6137   5.468   2.211   7.600
    3POPC    CE 6138   4.851   1.992   5.721
    3POPC    OG 6139   4.756   1.991   5.830
    3POPC   C2A 6140   4.799   2.027   5.949
    3POPC    OH 6141   4.909   2.076   5.975
    3POPC   C2B 6142   4.692   2.004   6.051
    3POPC   C2C 6143   4.759   1.971   6.188
    3POPC   C2D 6144   4.662   1.925   6.293
    3POPC   C2E 6145   4.723   1.895   6.438
    3POPC   C2F 6146   4.625   1.852   6.549
    3POPC   C2G 6147   4.697   1.828   6.687
    3POPC   C2H 6148   4.601   1.768   6.791
    3POPC   C2I 6149   4.677   1.745   6.925
    3POPC   C2J 6150   4.594   1.663   7.024
    3POPC   C2K 6151   4.690   1.630   7.138
    3POPC   C2L 6152   4.616   1.559   7.253
    3POPC   C2M 6153   4.710   1.476   7.341
    3POPC   C2N 6154   4.639   1.441   7.470
    3POPC   C2O 6155   4.723   1.352   7.561
    3POPC   C2P 6156   4.648   1.310   7.687
    4POPC   CN1 6157   0.584   1.893   5.283
    4POPC   CN2 6158   0.404   2.012   5.391
    4POPC   CN3 6159   0.438   2.014   5.141
    4POPC   NTM 6160   0.505   2.018   5.278
    4POPC    CA 6161   0.601   2.144   5.281
    4POPC    CB 6162   0.516   2.275   5.267
    4POPC    OA 6163   0.423   2.282   5.376
    4POPC     P 6164   0.342   2.413   5.401
    4POPC    OB 6165   0.211   2.371   5.357
    4POPC    OC 6166   0.407   2.527   5.337
    4POPC    OD 6167   0.344   2.424   5.557
    4POPC    CC 6168   0.443   2.375   5.644
    4POPC    CD 6169   0.420   2.234   5.694
    4POPC    OE 6170   0.312   2.237   5.785
    4POPC   C1A 6171   0.256   2.119   5.810
    4POPC    OF 6172   0.283   2.010   5.756
    4POPC   C1B 6173   0.140   2.147   5.903
    4POPC   C1C 6174   0.066   2.023   5.963
    4POPC   C1D 6175   0.150   1.967   6.079
    4POPC   C1E 6176   0.075   1.872   6.170
    4POPC   C1F 6177   0.166   1.794   6.267
    4POPC   C1G 6178   0.070   1.727   6.371
    4POPC   C1H 6179   0.153   1.679   6.493
    4POPC   C1I 6180   0.049   1.595   6.569
    4POPC   C1J 6181   0.012   1.614   6.694
    4POPC   C1K 6182   0.047   1.721   6.787
    4POPC   C1L 6183   0.020   1.701   6.941
    4POPC   C1M 6184   0.122   1.596   6.989
    4POPC   C1N 6185   0.132   1.577   7.142
    4POPC   C1O 6186  -0.000   1.576   7.226
    4POPC   C1P 6187   0.013   1.540   7.366
    4POPC   C1Q 6188   0.070   1.653   7.456
    4POPC   C1R 6189   0.104   1.600   7.600
    4POPC    CE 6190   0.544   2.170   5.745
    4POPC    OG 6191   0.598   2.240   5.859
    4POPC   C2A 6192   0.584   2.186   5.977
    4POPC    OH 6193   0.541   2.073   6.001
    4POPC   C2B 6194   0.631   2.281   6.083
    4POPC   C2C 6195   0.549   2.257   6.214
    4POPC   C2D 6196   0.573   2.361   6.320
    4POPC   C2E 6197   0.495   2.339   6.458
    4POPC   C2F 6198   0.522   2.442   6.571
    4POPC   C2G 6199   0.442   2.408   6.703
    4POPC   C2H 6200   0.455   2.521   6.806
    4POPC   C2I 6201   0.374   2.483   6.934
    4POPC   C2J 6202   0.362   2.601   7.031
    4POPC   C2K 6203   0.262   2.557   7.137
    4POPC   C2L 6204   0.252   2.661   7.250
    4POPC   C2M 6205   0.119   2.651   7.326
    4POPC   C2N 6206   0.131   2.729   7.455
    4POPC   C2O 6207  -0.000   2.730   7.535
    4POPC   C2P 6208   0.010   2.815   7.661
    5POPC   CN1 6209   1.778   5.110   5.272
    5POPC   CN2 6210   1.577   5.043   5.386
    5POPC   CN3 6211   1.588   5.070   5.135
    5POPC   NTM 6212   1.632   5.126   5.271
    5POPC    CA 6213   1.594   5.280   5.275
    5POPC    CB 6214   1.438   5.296   5.266
    5POPC    OA 6215   1.378   5.227   5.377
    5POPC     P 6216   1.226   5.246   5.406
    5POPC    OB 6217   1.175   5.118   5.364
    5POPC    OC 6218   1.176   5.368   5.344
    5POPC    OD 6219   1.223   5.255   5.563
    5POPC    CC 6220   1.326   5.302   5.646
    5POPC    CD 6221   1.423   5.196   5.693
    5POPC    OE 6222   1.357   5.114   5.787
    5POPC   C1A 6223   1.415   4.997   5.811
    5POPC    OF 6224   1.514   4.950   5.754
    5POPC   C1B 6225   1.323   4.925   5.907
    5POPC   C1C 6226   1.375   4.790   5.966
    5POPC   C1D 6227   1.475   4.820   6.078
    5POPC   C1E 6228   1.505   4.703   6.169
    5POPC   C1F 6229   1.626   4.725   6.263
    5POPC   C1G 6230   1.622   4.609   6.367
    5POPC   C1H 6231   1.715   4.644   6.485
    5POPC   C1I 6232   1.718   4.511   6.563
    5POPC   C1J 6233   1.684   4.494   6.688
    5POPC   C1K 6234   1.626   4.589   6.784
    5POPC   C1L 6235   1.629   4.556   6.938
    5POPC   C1M 6236   1.776   4.570   6.981
    5POPC   C1N 6237   1.803   4.567   7.133
    5POPC   C1O 6238   1.723   4.463   7.219
    5POPC   C1P 6239   1.764   4.452   7.359
    5POPC   C1Q 6240   1.714   4.567   7.449
    5POPC   C1R 6241   1.782   4.561   7.592
    5POPC    CE 6242   1.552   5.253   5.740
    5POPC    OG 6243   1.535   5.339   5.854
    5POPC   C2A 6244   1.572   5.295   5.972
    5POPC    OH 6245   1.634   5.191   5.994
    5POPC   C2B 6246   1.531   5.392   6.079
    5POPC   C2C 6247   1.502   5.313   6.211
    5POPC   C2D 6248   1.440   5.397   6.318
    5POPC   C2E 6249   1.413   5.324   6.458
    5POPC   C2F 6250   1.353   5.409   6.573
    5POPC   C2G 6251   1.334   5.327   6.705
    5POPC   C2H 6252   1.257   5.408   6.811
    5POPC   C2I 6253   1.240   5.321   6.940
    5POPC   C2J 6254   1.144   5.387   7.040
    5POPC   C2K 6255   1.119   5.281   7.147
    5POPC   C2L 6256   1.036   5.338   7.262
    5POPC   C2M 6257   0.962   5.229   7.341
    5POPC   C2N 6258   0.914   5.287   7.472
    5POPC   C2O 6259   0.833   5.186   7.554
    5POPC   C2P 6260   0.777   5.248   7.682
    6POPC   CN1 6261   3.938   5.578   5.264
    6POPC   CN2 6262   4.060   5.400   5.372
    6POPC   CN3 6263   4.043   5.421   5.120
    6POPC   NTM 6264   3.970   5.434   5.254
    6POPC    CA 6265   3.837   5.349   5.245
    6POPC    CB 6266   3.872   5.197   5.226
    6POPC    OA 6267   3.951   5.154   5.338
    6POPC     P 6268   3.980   5.002   5.358
    6POPC    OB 6269   4.121   4.998   5.322
    6POPC    OC 6270   3.884   4.920   5.284
    6POPC    OD 6271   3.965   4.985   5.514
    6POPC    CC 6272   3.883   5.061   5.598
    6POPC    CD 6273   3.950   5.183   5.658
    6POPC    OE 6274   4.044   5.139   5.754
    6POPC   C1A 6275   4.135   5.230   5.789
    6POPC    OF 6276   4.151   5.343   5.741
    6POPC   C1B 6277   4.228   5.159   5.885
    6POPC   C1C 6278   4.337   5.246   5.956
    6POPC   C1D 6279   4.270   5.323   6.071
    6POPC   C1E 6280   4.367   5.382   6.172
    6POPC   C1F 6281   4.302   5.482   6.270
    6POPC   C1G 6282   4.408   5.507   6.382
    6POPC   C1H 6283   4.339   5.576   6.502
    6POPC   C1I 6284   4.460   5.615   6.589
    6POPC   C1J 6285   4.481   5.578   6.713
    6POPC   C1K 6286   4.405   5.486   6.798
    6POPC   C1L 6287   4.428   5.489   6.954
    6POPC   C1M 6288   4.365   5.620   7.004
    6POPC   C1N 6289   4.352   5.634   7.157
    6POPC   C1O 6290   4.471   5.586   7.246
    6POPC   C1P 6291   4.462   5.617   7.388
    6POPC   C1Q 6292   4.364   5.527   7.468
    6POPC   C1R 6293   4.341   5.582   7.614
    6POPC    CE 6294   3.852   5.284   5.708
    6POPC    OG 6295   3.771   5.231   5.815
    6POPC   C2A 6296   3.795   5.271   5.937
    6POPC    OH 6297   3.872   5.361   5.970
    6POPC   C2B 6298   3.711   5.194   6.035
    6POPC   C2C 6299   3.788   5.182   6.170
    6POPC   C2D 6300   3.724   5.088   6.268
    6POPC   C2E 6301   3.795   5.075   6.410
    6POPC   C2F 6302   3.728   4.983   6.515
    6POPC   C2G 6303   3.806   4.981   6.652
    6POPC   C2H 6304   3.749   4.875   6.747
    6POPC   C2I 6305   3.829   4.877   6.881
    6POPC   C2J 6306   3.794   4.758   6.970
    6POPC   C2K 6307   3.896   4.760   7.083
    6POPC   C2L 6308   3.864   4.654   7.190
    6POPC   C2M 6309   3.987   4.614   7.272
    6POPC   C2N 6310   3.941   4.539   7.395
    6POPC   C2O 6311   4.058   4.489   7.480
    6POPC   C2P 6312   4.012   4.407   7.600
    7POPC   CN1 6313   3.341   1.024   5.245
    7POPC   CN2 6314   3.283   1.201   5.400
    7POPC   CN3 6315   3.227   1.212   5.154
    7POPC   NTM 6316   3.331   1.171   5.258
    7POPC    CA 6317   3.468   1.239   5.219
    7POPC    CB 6318   3.454   1.395   5.226
    7POPC    OA 6319   3.417   1.433   5.359
    7POPC     P 6320   3.420   1.582   5.401
    7POPC    OB 6321   3.277   1.610   5.408
    7POPC    OC 6322   3.504   1.660   5.310
    7POPC    OD 6323   3.479   1.577   5.546
    7POPC    CC 6324   3.568   1.480   5.596
    7POPC    CD 6325   3.501   1.360   5.661
    7POPC    OE 6326   3.445   1.403   5.783
    7POPC   C1A 6327   3.354   1.321   5.835
    7POPC    OF 6328   3.307   1.218   5.783
    7POPC   C1B 6329   3.303   1.389   5.960
    7POPC   C1C 6330   3.206   1.308   6.051
    7POPC   C1D 6331   3.288   1.208   6.134
    7POPC   C1E 6332   3.214   1.149   6.253
    7POPC   C1F 6333   3.286   1.030   6.318
    7POPC   C1G 6334   3.212   1.003   6.453
    7POPC   C1H 6335   3.299   0.911   6.542
    7POPC   C1I 6336   3.202   0.877   6.655
    7POPC   C1J 6337   3.222   0.898   6.783
    7POPC   C1K 6338   3.332   0.967   6.851
    7POPC   C1L 6339   3.353   0.947   7.005
    7POPC   C1M 6340   3.405   0.803   7.023
    7POPC   C1N 6341   3.457   0.766   7.163
    7POPC   C1O 6342   3.376   0.817   7.287
    7POPC   C1P 6343   3.418   0.766   7.417
    7POPC   C1Q 6344   3.548   0.831   7.472
    7POPC   C1R 6345   3.600   0.754   7.600
    7POPC    CE 6346   3.591   1.242   5.671
    7POPC    OG 6347   3.706   1.269   5.753
    7POPC   C2A 6348   3.710   1.216   5.873
    7POPC    OH 6349   3.631   1.133   5.919
    7POPC   C2B 6350   3.828   1.268   5.949
    7POPC   C2C 6351   3.795   1.271   6.101
    7POPC   C2D 6352   3.898   1.342   6.184
    7POPC   C2E 6353   3.871   1.344   6.342
    7POPC   C2F 6354   3.979   1.412   6.431
    7POPC   C2G 6355   3.943   1.405   6.584
    7POPC   C2H 6356   4.040   1.490   6.668
    7POPC   C2I 6357   4.000   1.480   6.818
    7POPC   C2J 6358   4.077   1.581   6.905
    7POPC   C2K 6359   4.011   1.576   7.041
    7POPC   C2L 6360   4.088   1.662   7.143
    7POPC   C2M 6361   4.001   1.706   7.261
    7POPC   C2N 6362   4.090   1.757   7.372
    7POPC   C2O 6363   4.010   1.809   7.491
    7POPC   C2P 6364   4.100   1.868   7.600
    8POPC   CN1 6365   1.684   2.316   5.339
    8POPC   CN2 6366   1.467   2.325   5.443
    8POPC   CN3 6367   1.498   2.306   5.193
    8POPC   NTM 6368   1.548   2.370   5.322
    8POPC    CA 6369   1.554   2.526   5.300
    8POPC    CB 6370   1.409   2.581   5.275
    8POPC    OA 6371   1.327   2.550   5.388
    8POPC     P 6372   1.185   2.614   5.401
    8POPC    OB 6373   1.102   2.498   5.373
    8POPC    OC 6374   1.174   2.733   5.316
    8POPC    OD 6375   1.177   2.649   5.554
    8POPC    CC 6376   1.285   2.681   5.638
    8POPC    CD 6377   1.347   2.562   5.709
    8POPC    OE 6378   1.256   2.518   5.807
    8POPC   C1A 6379   1.278   2.395   5.853
    8POPC    OF 6380   1.362   2.314   5.813
    8POPC   C1B 6381   1.165   2.366   5.950
    8POPC   C1C 6382   1.174   2.234   6.032
    8POPC   C1D 6383   1.274   2.255   6.148
    8POPC   C1E 6384   1.266   2.151   6.258
    8POPC   C1F 6385   1.383   2.156   6.358
    8POPC   C1G 6386   1.342   2.064   6.477
    8POPC   C1H 6387   1.435   2.092   6.597
    8POPC   C1I 6388   1.397   1.978   6.693
    8POPC   C1J 6389   1.354   1.992   6.816
    8POPC   C1K 6390   1.320   2.114   6.890
    8POPC   C1L 6391   1.307   2.107   7.047
    8POPC   C1M 6392   1.449   2.088   7.102
    8POPC   C1N 6393   1.467   2.104   7.254
    8POPC   C1O 6394   1.357   2.041   7.347
    8POPC   C1P 6395   1.387   2.042   7.490
    8POPC   C1Q 6396   1.366   2.180   7.557
    8POPC   C1R 6397   1.423   2.180   7.705
    8POPC    CE 6398   1.484   2.589   5.759
    8POPC    OG 6399   1.486   2.695   5.857
    8POPC   C2A 6400   1.503   2.663   5.982
    8POPC    OH 6401   1.533   2.552   6.026
    8POPC   C2B 6402   1.485   2.783   6.070
    8POPC   C2C 6403   1.430   2.739   6.208
    8POPC   C2D 6404   1.388   2.853   6.297
    8POPC   C2E 6405   1.335   2.813   6.442
    8POPC   C2F 6406   1.296   2.930   6.537
    8POPC   C2G 6407   1.248   2.878   6.678
    8POPC   C2H 6408   1.191   2.993   6.763
    8POPC   C2I 6409   1.145   2.937   6.901
    8POPC   C2J 6410   1.065   3.041   6.981
    8POPC   C2K 6411   1.007   2.966   7.099
    8POPC   C2L 6412   0.937   3.061   7.197
    8POPC   C2M 6413   0.833   2.990   7.284
    8POPC   C2N 6414   0.796   3.080   7.400
    8POPC   C2O 6415   0.686   3.019   7.488
    8POPC   C2P 6416   0.643   3.114   7.600
    9POPC   CN1 6417   2.597   3.874   5.255
    9POPC   CN2 6418   2.417   3.839   5.412
    9POPC   CN3 6419   2.399   3.777   5.168
    9POPC   NTM 6420   2.450   3.879   5.269
    9POPC    CA 6421   2.396   4.022   5.226
    9POPC    CB 6422   2.239   4.023   5.234
    9POPC    OA 6423   2.199   3.993   5.369
    9POPC     P 6424   2.050   4.012   5.411
    9POPC    OB 6425   2.009   3.874   5.423
    9POPC    OC 6426   1.980   4.101   5.318
    9POPC    OD 6427   2.063   4.075   5.554
    9POPC    CC 6428   2.169   4.155   5.601
    9POPC    CD 6429   2.282   4.079   5.668
    9POPC    OE 6430   2.235   4.031   5.792
    9POPC   C1A 6431   2.308   3.934   5.845
    9POPC    OF 6432   2.405   3.876   5.795
    9POPC   C1B 6433   2.236   3.894   5.972
    9POPC   C1C 6434   2.308   3.792   6.066
    9POPC   C1D 6435   2.416   3.866   6.146
    9POPC   C1E 6436   2.468   3.790   6.266
    9POPC   C1F 6437   2.595   3.852   6.329
    9POPC   C1G 6438   2.615   3.780   6.466
    9POPC   C1H 6439   2.716   3.860   6.551
    9POPC   C1I 6440   2.742   3.763   6.668
    9POPC   C1J 6441   2.723   3.789   6.795
    9POPC   C1K 6442   2.666   3.908   6.860
    9POPC   C1L 6443   2.690   3.931   7.014
    9POPC   C1M 6444   2.838   3.969   7.029
    9POPC   C1N 6445   2.881   4.022   7.168
    9POPC   C1O 6446   2.823   3.950   7.294
    9POPC   C1P 6447   2.879   3.991   7.422
    9POPC   C1Q 6448   2.827   4.127   7.474
    9POPC   C1R 6449   2.910   4.176   7.599
    9POPC    CE 6450   2.408   4.157   5.674
    9POPC    OG 6451   2.393   4.277   5.753
    9POPC   C2A 6452   2.447   4.279   5.872
    9POPC    OH 6453   2.522   4.194   5.920
    9POPC   C2B 6454   2.408   4.404   5.945
    9POPC   C2C 6455   2.402   4.375   6.098
    9POPC   C2D 6456   2.342   4.487   6.179
    9POPC   C2E 6457   2.339   4.466   6.337
    9POPC   C2F 6458   2.283   4.582   6.423
    9POPC   C2G 6459   2.287   4.550   6.577
    9POPC   C2H 6460   2.213   4.657   6.658
    9POPC   C2I 6461   2.220   4.621   6.810
    9POPC   C2J 6462   2.128   4.710   6.894
    9POPC   C2K 6463   2.127   4.648   7.033
    9POPC   C2L 6464   2.050   4.736   7.133
    9POPC   C2M 6465   1.999   4.657   7.253
    9POPC   C2N 6466   1.958   4.753   7.362
    9POPC   C2O 6467   1.898   4.683   7.484
    9POPC   C2P 6468   1.850   4.781   7.590
   10POPC   CN1 6469   0.671   0.807   5.316
   10POPC   CN2 6470   0.882   0.826   5.431
   10POPC   CN3 6471   0.860   0.850   5.180
   10POPC   NTM 6472   0.814   0.774   5.305
   10POPC    CA 6473   0.833   0.619   5.277
   10POPC    CB 6474   0.985   0.587   5.257
   10POPC    OA 6475   1.056   0.626   5.376
   10POPC     P 6476   1.205   0.583   5.393
   10POPC    OB 6477   1.271   0.710   5.374
   10POPC    OC 6478   1.238   0.470   5.306
   10POPC    OD 6479   1.211   0.543   5.545
   10POPC    CC 6480   1.105   0.493   5.623
   10POPC    CD 6481   1.024   0.598   5.695
   10POPC    OE 6482   1.103   0.652   5.799
   10POPC   C1A 6483   1.060   0.768   5.847
   10POPC    OF 6484   0.967   0.837   5.806
   10POPC   C1B 6485   1.163   0.809   5.951
   10POPC   C1C 6486   1.130   0.935   6.037
   10POPC   C1D 6487   1.030   0.895   6.147
   10POPC   C1E 6488   1.018   0.995   6.260
   10POPC   C1F 6489   0.898   0.969   6.353
   10POPC   C1G 6490   0.919   1.061   6.478
   10POPC   C1H 6491   0.826   1.015   6.592
   10POPC   C1I 6492   0.842   1.129   6.693
   10POPC   C1J 6493   0.882   1.117   6.818
   10POPC   C1K 6494   0.929   0.998   6.890
   10POPC   C1L 6495   0.934   1.001   7.047
   10POPC   C1M 6496   0.788   0.996   7.095
   10POPC   C1N 6497   0.766   0.972   7.246
   10POPC   C1O 6498   0.861   1.047   7.346
   10POPC   C1P 6499   0.826   1.035   7.487
   10POPC   C1Q 6500   0.863   0.899   7.551
   10POPC   C1R 6501   0.800   0.885   7.695
   10POPC    CE 6502   0.890   0.549   5.736
   10POPC    OG 6503   0.899   0.440   5.831
   10POPC   C2A 6504   0.872   0.465   5.956
   10POPC    OH 6505   0.824   0.569   6.001
   10POPC   C2B 6506   0.903   0.345   6.040
   10POPC   C2C 6507   0.945   0.392   6.183
   10POPC   C2D 6508   0.999   0.281   6.269
   10POPC   C2E 6509   1.039   0.322   6.419
   10POPC   C2F 6510   1.091   0.210   6.512
   10POPC   C2G 6511   1.124   0.261   6.657
   10POPC   C2H 6512   1.193   0.153   6.740
   10POPC   C2I 6513   1.224   0.209   6.882
   10POPC   C2J 6514   1.314   0.115   6.963
   10POPC   C2K 6515   1.355   0.194   7.087
   10POPC   C2L 6516   1.434   0.106   7.185
   10POPC   C2M 6517   1.522   0.188   7.279
   10POPC   C2N 6518   1.567   0.100   7.394
   10POPC   C2O 6519   1.662   0.172   7.490
   10POPC   C2P 6520   1.713   0.080   7.600
   11POPC   CN1 6521   3.855   4.597   5.271
   11POPC   CN2 6522   3.971   4.418   5.386
   11POPC   CN3 6523   3.946   4.425   5.134
   11POPC   NTM 6524   3.878   4.451   5.269
   11POPC    CA 6525   3.740   4.374   5.271
   11POPC    CB 6526   3.766   4.219   5.260
   11POPC    OA 6527   3.847   4.178   5.372
   11POPC     P 6528   3.867   4.027   5.400
   11POPC    OB 6529   4.005   4.011   5.360
   11POPC    OC 6530   3.764   3.947   5.336
   11POPC    OD 6531   3.857   4.020   5.557
   11POPC    CC 6532   3.783   4.106   5.640
   11POPC    CD 6533   3.859   4.228   5.689
   11POPC    OE 6534   3.954   4.184   5.784
   11POPC   C1A 6535   4.052   4.271   5.810
   11POPC    OF 6536   4.073   4.379   5.754
   11POPC   C1B 6537   4.145   4.200   5.907
   11POPC   C1C 6538   4.260   4.285   5.968
   11POPC   C1D 6539   4.203   4.373   6.081
   11POPC   C1E 6540   4.307   4.432   6.174
   11POPC   C1F 6541   4.252   4.542   6.267
   11POPC   C1G 6542   4.364   4.567   6.374
   11POPC   C1H 6543   4.304   4.647   6.492
   11POPC   C1I 6544   4.431   4.684   6.571
   11POPC   C1J 6545   4.454   4.654   6.697
   11POPC   C1K 6546   4.376   4.573   6.790
   11POPC   C1L 6547   4.405   4.583   6.945
   11POPC   C1M 6548   4.352   4.721   6.989
   11POPC   C1N 6549   4.346   4.746   7.141
   11POPC   C1O 6550   4.465   4.696   7.228
   11POPC   C1P 6551   4.464   4.737   7.368
   11POPC   C1Q 6552   4.364   4.658   7.457
   11POPC   C1R 6553   4.350   4.724   7.600
   11POPC    CE 6554   3.770   4.337   5.736
   11POPC    OG 6555   3.690   4.296   5.849
   11POPC   C2A 6556   3.721   4.342   5.967
   11POPC    OH 6557   3.805   4.429   5.991
   11POPC   C2B 6558   3.637   4.277   6.072
   11POPC   C2C 6559   3.718   4.268   6.205
   11POPC   C2D 6560   3.652   4.185   6.311
   11POPC   C2E 6561   3.728   4.177   6.451
   11POPC   C2F 6562   3.659   4.096   6.565
   11POPC   C2G 6563   3.742   4.098   6.699
   11POPC   C2H 6564   3.682   4.002   6.802
   11POPC   C2I 6565   3.769   4.007   6.932
   11POPC   C2J 6566   3.730   3.896   7.031
   11POPC   C2K 6567   3.836   3.899   7.140
   11POPC   C2L 6568   3.802   3.802   7.254
   11POPC   C2M 6569   3.925   3.759   7.334
   11POPC   C2N 6570   3.880   3.696   7.464
   11POPC   C2O 6571   3.997   3.644   7.547
   11POPC   C2P 6572   3.951   3.572   7.674
   12POPC   CN1 6573   2.327   4.595   5.320
   12POPC   CN2 6574   2.120   4.662   5.425
   12POPC   CN3 6575   2.149   4.652   5.173
   12POPC   NTM 6576   2.214   4.689   5.307
   12POPC    CA 6577   2.267   4.838   5.297
   12POPC    CB 6578   2.146   4.935   5.275
   12POPC    OA 6579   2.056   4.922   5.386
   12POPC     P 6580   1.940   5.025   5.404
   12POPC    OB 6581   1.827   4.942   5.368
   12POPC    OC 6582   1.966   5.147   5.328
   12POPC    OD 6583   1.939   5.050   5.559
   12POPC    CC 6584   2.050   5.041   5.645
   12POPC    CD 6585   2.071   4.905   5.707
   12POPC    OE 6586   1.969   4.883   5.802
   12POPC   C1A 6587   1.952   4.756   5.838
   12POPC    OF 6588   2.010   4.657   5.793
   12POPC   C1B 6589   1.834   4.756   5.933
   12POPC   C1C 6590   1.801   4.622   6.005
   12POPC   C1D 6591   1.900   4.603   6.122
   12POPC   C1E 6592   1.858   4.499   6.224
   12POPC   C1F 6593   1.970   4.462   6.324
   12POPC   C1G 6594   1.900   4.378   6.436
   12POPC   C1H 6595   1.995   4.368   6.558
   12POPC   C1I 6596   1.922   4.264   6.645
   12POPC   C1J 6597   1.882   4.282   6.769
   12POPC   C1K 6598   1.885   4.403   6.852
   12POPC   C1L 6599   1.867   4.389   7.008
   12POPC   C1M 6600   1.996   4.324   7.061
   12POPC   C1N 6601   2.014   4.323   7.214
   12POPC   C1O 6602   1.889   4.290   7.302
   12POPC   C1P 6603   1.914   4.272   7.444
   12POPC   C1Q 6604   1.935   4.405   7.522
   12POPC   C1R 6605   1.985   4.377   7.669
   12POPC    CE 6606   2.209   4.886   5.759
   12POPC    OG 6607   2.241   4.979   5.865
   12POPC   C2A 6608   2.245   4.934   5.987
   12POPC    OH 6609   2.239   4.816   6.022
   12POPC   C2B 6610   2.262   5.048   6.083
   12POPC   C2C 6611   2.192   5.012   6.218
   12POPC   C2D 6612   2.185   5.127   6.315
   12POPC   C2E 6613   2.119   5.095   6.457
   12POPC   C2F 6614   2.115   5.211   6.560
   12POPC   C2G 6615   2.050   5.167   6.697
   12POPC   C2H 6616   2.029   5.287   6.790
   12POPC   C2I 6617   1.965   5.238   6.924
   12POPC   C2J 6618   1.919   5.355   7.011
   12POPC   C2K 6619   1.838   5.292   7.124
   12POPC   C2L 6620   1.798   5.397   7.229
   12POPC   C2M 6621   1.675   5.355   7.310
   12POPC   C2N 6622   1.664   5.443   7.432
   12POPC   C2O 6623   1.540   5.412   7.516
   12POPC   C2P 6624   1.525   5.507   7.634
   13POPC   CN1 6625   1.225   3.459   5.240
   13POPC   CN2 6626   1.112   3.295   5.377
   13POPC   CN3 6627   1.107   3.289   5.123
   13POPC   NTM 6628   1.102   3.378   5.249
   13POPC    CA 6629   0.974   3.470   5.239
   13POPC    CB 6630   0.845   3.381   5.240
   13POPC    OA 6631   0.841   3.305   5.362
   13POPC     P 6632   0.712   3.227   5.400
   13POPC    OB 6633   0.757   3.092   5.377
   13POPC    OC 6634   0.596   3.279   5.329
   13POPC    OD 6635   0.703   3.253   5.555
   13POPC    CC 6636   0.750   3.366   5.624
   13POPC    CD 6637   0.892   3.354   5.675
   13POPC    OE 6638   0.893   3.262   5.782
   13POPC   C1A 6639   1.012   3.213   5.814
   13POPC    OF 6640   1.119   3.233   5.756
   13POPC   C1B 6641   0.988   3.113   5.925
   13POPC   C1C 6642   1.113   3.051   5.994
   13POPC   C1D 6643   1.169   3.154   6.094
   13POPC   C1E 6644   1.266   3.096   6.195
   13POPC   C1F 6645   1.343   3.203   6.276
   13POPC   C1G 6646   1.413   3.126   6.393
   13POPC   C1H 6647   1.461   3.228   6.499
   13POPC   C1I 6648   1.548   3.139   6.590
   13POPC   C1J 6649   1.531   3.121   6.719
   13POPC   C1K 6650   1.424   3.169   6.807
   13POPC   C1L 6651   1.446   3.167   6.963
   13POPC   C1M 6652   1.549   3.277   6.993
   13POPC   C1N 6653   1.569   3.312   7.142
   13POPC   C1O 6654   1.574   3.194   7.245
   13POPC   C1P 6655   1.611   3.230   7.382
   13POPC   C1Q 6656   1.497   3.298   7.463
   13POPC   C1R 6657   1.551   3.356   7.599
   13POPC    CE 6658   0.954   3.486   5.706
   13POPC    OG 6659   0.883   3.555   5.811
   13POPC   C2A 6660   0.938   3.561   5.929
   13POPC    OH 6661   1.053   3.525   5.958
   13POPC   C2B 6662   0.844   3.622   6.028
   13POPC   C2C 6663   0.871   3.562   6.169
   13POPC   C2D 6664   0.767   3.600   6.272
   13POPC   C2E 6665   0.792   3.546   6.420
   13POPC   C2F 6666   0.690   3.588   6.529
   13POPC   C2G 6667   0.727   3.531   6.671
   13POPC   C2H 6668   0.614   3.557   6.772
   13POPC   C2I 6669   0.655   3.498   6.911
   13POPC   C2J 6670   0.539   3.499   7.010
   13POPC   C2K 6671   0.586   3.418   7.129
   13POPC   C2L 6672   0.484   3.423   7.244
   13POPC   C2M 6673   0.497   3.304   7.340
   13POPC   C2N 6674   0.421   3.334   7.467
   13POPC   C2O 6675   0.423   3.217   7.566
   13POPC   C2P 6676   0.339   3.245   7.690
   14POPC   CN1 6677   1.613   1.935   5.233
   14POPC   CN2 6678   1.732   1.783   5.379
   14POPC   CN3 6679   1.758   1.779   5.127
   14POPC   NTM 6680   1.661   1.796   5.244
   14POPC    CA 6681   1.541   1.695   5.223
   14POPC    CB 6682   1.595   1.547   5.227
   14POPC    OA 6683   1.657   1.524   5.355
   14POPC     P 6684   1.697   1.380   5.396
   14POPC    OB 6685   1.841   1.389   5.385
   14POPC    OC 6686   1.624   1.281   5.317
   14POPC    OD 6687   1.656   1.375   5.548
   14POPC    CC 6688   1.553   1.448   5.609
   14POPC    CD 6689   1.596   1.582   5.665
   14POPC    OE 6690   1.675   1.559   5.779
   14POPC   C1A 6691   1.749   1.663   5.819
   14POPC    OF 6692   1.762   1.772   5.762
   14POPC   C1B 6693   1.831   1.613   5.936
   14POPC   C1C 6694   1.915   1.718   6.014
   14POPC   C1D 6695   1.822   1.797   6.107
   14POPC   C1E 6696   1.893   1.876   6.215
   14POPC   C1F 6697   1.802   1.976   6.289
   14POPC   C1G 6698   1.883   2.024   6.414
   14POPC   C1H 6699   1.788   2.094   6.513
   14POPC   C1I 6700   1.887   2.155   6.613
   14POPC   C1J 6701   1.889   2.133   6.742
   14POPC   C1K 6702   1.809   2.041   6.824
   14POPC   C1L 6703   1.803   2.060   6.980
   14POPC   C1M 6704   1.719   2.187   7.004
   14POPC   C1N 6705   1.678   2.214   7.150
   14POPC   C1O 6706   1.784   2.189   7.263
   14POPC   C1P 6707   1.746   2.232   7.397
   14POPC   C1Q 6708   1.646   2.138   7.468
   14POPC   C1R 6709   1.592   2.204   7.602
   14POPC    CE 6710   1.481   1.675   5.687
   14POPC    OG 6711   1.388   1.623   5.783
   14POPC   C2A 6712   1.385   1.677   5.903
   14POPC    OH 6713   1.446   1.778   5.938
   14POPC   C2B 6714   1.294   1.599   5.993
   14POPC   C2C 6715   1.347   1.609   6.139
   14POPC   C2D 6716   1.276   1.517   6.235
   14POPC   C2E 6717   1.322   1.526   6.388
   14POPC   C2F 6718   1.247   1.437   6.490
   14POPC   C2G 6719   1.299   1.457   6.637
   14POPC   C2H 6720   1.237   1.354   6.733
   14POPC   C2I 6721   1.292   1.378   6.877
   14POPC   C2J 6722   1.254   1.264   6.972
   14POPC   C2K 6723   1.334   1.289   7.099
   14POPC   C2L 6724   1.294   1.190   7.210
   14POPC   C2M 6725   1.403   1.172   7.315
   14POPC   C2N 6726   1.345   1.105   7.437
   14POPC   C2O 6727   1.449   1.077   7.545
   14POPC   C2P 6728   1.391   1.001   7.664
   15POPC   CN1 6729   1.929   5.839   5.338
   15POPC   CN2 6730   2.038   6.025   5.447
   15POPC   CN3 6731   2.005   6.013   5.196
   15POPC   NTM 6732   2.040   5.936   5.323
   15POPC    CA 6733   2.176   5.859   5.298
   15POPC    CB 6734   2.291   5.962   5.275
   15POPC    OA 6735   2.302   6.046   5.391
   15POPC     P 6736   2.424   6.142   5.405
   15POPC    OB 6737   2.360   6.270   5.382
   15POPC    OC 6738   2.534   6.100   5.319
   15POPC    OD 6739   2.460   6.129   5.557
   15POPC    CC 6740   2.439   6.016   5.639
   15POPC    CD 6741   2.305   6.014   5.710
   15POPC    OE 6742   2.309   6.113   5.811
   15POPC   C1A 6743   2.190   6.149   5.859
   15POPC    OF 6744   2.079   6.112   5.819
   15POPC   C1B 6745   2.217   6.259   5.959
   15POPC   C1C 6746   2.096   6.309   6.044
   15POPC   C1D 6747   2.069   6.208   6.157
   15POPC   C1E 6748   1.981   6.261   6.268
   15POPC   C1F 6749   1.932   6.152   6.365
   15POPC   C1G 6750   1.870   6.227   6.488
   15POPC   C1H 6751   1.852   6.128   6.605
   15POPC   C1I 6752   1.769   6.212   6.703
   15POPC   C1J 6753   1.803   6.240   6.827
   15POPC   C1K 6754   1.927   6.212   6.900
   15POPC   C1L 6755   1.928   6.223   7.057
   15POPC   C1M 6756   1.845   6.103   7.109
   15POPC   C1N 6757   1.852   6.076   7.261
   15POPC   C1O 6758   1.847   6.200   7.357
   15POPC   C1P 6759   1.836   6.169   7.499
   15POPC   C1Q 6760   1.968   6.122   7.565
   15POPC   C1R 6761   1.943   6.068   7.711
   15POPC    CE 6762   2.266   5.879   5.757
   15POPC    OG 6763   2.360   5.825   5.853
   15POPC   C2A 6764   2.324   5.821   5.978
   15POPC    OH 6765   2.212   5.845   6.023
   15POPC   C2B 6766   2.440   5.779   6.064
   15POPC   C2C 6767   2.427   5.845   6.205
   15POPC   C2D 6768   2.548   5.827   6.292
   15POPC   C2E 6769   2.538   5.889   6.439
   15POPC   C2F 6770   2.660   5.867   6.533
   15POPC   C2G 6771   2.637   5.929   6.676
   15POPC   C2H 6772   2.766   5.924   6.760
   15POPC   C2I 6773   2.738   5.987   6.900
   15POPC   C2J 6774   2.868   6.007   6.980
   15POPC   C2K 6775   2.828   6.090   7.101
   15POPC   C2L 6776   2.946   6.106   7.198
   15POPC   C2M 6777   2.931   6.228   7.289
   15POPC   C2N 6778   3.029   6.217   7.404
   15POPC   C2O 6779   3.026   6.339   7.496
   15POPC   C2P 6780   3.130   6.330   7.606
   16POPC   CN1 6781   0.493   1.466   5.224
   16POPC   CN2 6782   0.326   1.568   5.365
   16POPC   CN3 6783   0.302   1.555   5.114
   16POPC   NTM 6784   0.397   1.579   5.231
   16POPC    CA 6785   0.473   1.716   5.207
   16POPC    CB 6786   0.369   1.834   5.207
   16POPC    OA 6787   0.302   1.836   5.334
   16POPC     P 6788   0.211   1.957   5.371
   16POPC    OB 6789   0.081   1.896   5.360
   16POPC    OC 6790   0.243   2.073   5.289
   16POPC    OD 6791   0.246   1.980   5.522
   16POPC    CC 6792   0.368   1.952   5.585
   16POPC    CD 6793   0.378   1.813   5.646
   16POPC    OE 6794   0.294   1.809   5.759
   16POPC   C1A 6795   0.263   1.687   5.802
   16POPC    OF 6796   0.291   1.579   5.748
   16POPC   C1B 6797   0.168   1.707   5.918
   16POPC   C1C 6798   0.127   1.580   5.999
   16POPC   C1D 6799   0.242   1.543   6.094
   16POPC   C1E 6800   0.204   1.447   6.205
   16POPC   C1F 6801   0.324   1.389   6.282
   16POPC   C1G 6802   0.265   1.319   6.408
   16POPC   C1H 6803   0.379   1.291   6.509
   16POPC   C1I 6804   0.308   1.201   6.611
   16POPC   C1J 6805   0.297   1.224   6.740
   16POPC   C1K 6806   0.337   1.342   6.818
   16POPC   C1L 6807   0.349   1.330   6.974
   16POPC   C1M 6808   0.472   1.243   7.002
   16POPC   C1N 6809   0.520   1.237   7.149
   16POPC   C1O 6810   0.411   1.226   7.261
   16POPC   C1P 6811   0.460   1.203   7.396
   16POPC   C1Q 6812   0.519   1.329   7.464
   16POPC   C1R 6813   0.592   1.291   7.599
   16POPC    CE 6814   0.518   1.769   5.669
   16POPC    OG 6815   0.585   1.855   5.764
   16POPC   C2A 6816   0.606   1.809   5.885
   16POPC    OH 6817   0.586   1.693   5.923
   16POPC   C2B 6818   0.661   1.917   5.973
   16POPC   C2C 6819   0.615   1.893   6.120
   16POPC   C2D 6820   0.647   2.006   6.212
   16POPC   C2E 6821   0.606   1.985   6.365
   16POPC   C2F 6822   0.643   2.099   6.465
   16POPC   C2G 6823   0.600   2.066   6.613
   16POPC   C2H 6824   0.620   2.187   6.705
   16POPC   C2I 6825   0.576   2.149   6.850
   16POPC   C2J 6826   0.569   2.271   6.942
   16POPC   C2K 6827   0.503   2.223   7.069
   16POPC   C2L 6828   0.503   2.332   7.177
   16POPC   C2M 6829   0.394   2.312   7.282
   16POPC   C2N 6830   0.423   2.400   7.402
   16POPC   C2O 6831   0.314   2.390   7.509
   16POPC   C2P 6832   0.340   2.486   7.626
   17POPC   CN1 6833   2.729   3.277   5.273
   17POPC   CN2 6834   2.531   3.206   5.392
   17POPC   CN3 6835   2.543   3.214   5.140
   17POPC   NTM 6836   2.582   3.283   5.271
   17POPC    CA 6837   2.533   3.433   5.262
   17POPC    CB 6838   2.377   3.438   5.251
   17POPC    OA 6839   2.320   3.375   5.366
   17POPC     P 6840   2.167   3.386   5.394
   17POPC    OB 6841   2.125   3.252   5.362
   17POPC    OC 6842   2.110   3.499   5.322
   17POPC    OD 6843   2.162   3.407   5.550
   17POPC    CC 6844   2.261   3.468   5.629
   17POPC    CD 6845   2.365   3.372   5.685
   17POPC    OE 6846   2.303   3.294   5.785
   17POPC   C1A 6847   2.368   3.183   5.818
   17POPC    OF 6848   2.470   3.138   5.766
   17POPC   C1B 6849   2.280   3.113   5.919
   17POPC   C1C 6850   2.340   2.986   5.989
   17POPC   C1D 6851   2.437   3.032   6.099
   17POPC   C1E 6852   2.474   2.925   6.199
   17POPC   C1F 6853   2.592   2.963   6.291
   17POPC   C1G 6854   2.594   2.855   6.405
   17POPC   C1H 6855   2.684   2.905   6.520
   17POPC   C1I 6856   2.694   2.779   6.608
   17POPC   C1J 6857   2.660   2.770   6.734
   17POPC   C1K 6858   2.595   2.869   6.821
   17POPC   C1L 6859   2.599   2.848   6.977
   17POPC   C1M 6860   2.745   2.875   7.020
   17POPC   C1N 6861   2.770   2.886   7.172
   17POPC   C1O 6862   2.696   2.785   7.266
   17POPC   C1P 6863   2.736   2.787   7.406
   17POPC   C1Q 6864   2.678   2.906   7.487
   17POPC   C1R 6865   2.745   2.915   7.630
   17POPC    CE 6866   2.489   3.441   5.728
   17POPC    OG 6867   2.465   3.535   5.835
   17POPC   C2A 6868   2.504   3.503   5.955
   17POPC    OH 6869   2.572   3.405   5.986
   17POPC   C2B 6870   2.455   3.605   6.054
   17POPC   C2C 6871   2.430   3.535   6.192
   17POPC   C2D 6872   2.362   3.623   6.292
   17POPC   C2E 6873   2.338   3.559   6.437
   17POPC   C2F 6874   2.272   3.650   6.544
   17POPC   C2G 6875   2.256   3.577   6.683
   17POPC   C2H 6876   2.173   3.661   6.781
   17POPC   C2I 6877   2.161   3.584   6.916
   17POPC   C2J 6878   2.059   3.650   7.010
   17POPC   C2K 6879   2.041   3.552   7.125
   17POPC   C2L 6880   1.952   3.612   7.236
   17POPC   C2M 6881   1.885   3.506   7.323
   17POPC   C2N 6882   1.832   3.570   7.448
   17POPC   C2O 6883   1.757   3.471   7.538
   17POPC   C2P 6884   1.696   3.539   7.660
   18POPC   CN1 6885   3.575   5.230   5.286
   18POPC   CN2 6886   3.679   5.041   5.393
   18POPC   CN3 6887   3.647   5.055   5.142
   18POPC   NTM 6888   3.586   5.083   5.280
   18POPC    CA 6889   3.442   5.018   5.285
   18POPC    CB 6890   3.454   4.862   5.270
   18POPC    OA 6891   3.535   4.812   5.378
   18POPC     P 6892   3.544   4.658   5.403
   18POPC    OB 6893   3.679   4.633   5.357
   18POPC    OC 6894   3.432   4.589   5.340
   18POPC    OD 6895   3.538   4.649   5.559
   18POPC    CC 6896   3.474   4.738   5.646
   18POPC    CD 6897   3.562   4.852   5.696
   18POPC    OE 6898   3.656   4.798   5.786
   18POPC   C1A 6899   3.761   4.876   5.811
   18POPC    OF 6900   3.789   4.984   5.757
   18POPC   C1B 6901   3.851   4.796   5.903
   18POPC   C1C 6902   3.975   4.869   5.962
   18POPC   C1D 6903   3.929   4.959   6.078
   18POPC   C1E 6904   4.041   5.006   6.169
   18POPC   C1F 6905   3.998   5.118   6.267
   18POPC   C1G 6906   4.115   5.131   6.370
   18POPC   C1H 6907   4.066   5.213   6.492
   18POPC   C1I 6908   4.198   5.237   6.568
   18POPC   C1J 6909   4.222   5.202   6.692
   18POPC   C1K 6910   4.141   5.125   6.786
   18POPC   C1L 6911   4.175   5.130   6.940
   18POPC   C1M 6912   4.136   5.270   6.988
   18POPC   C1N 6913   4.136   5.291   7.141
   18POPC   C1O 6914   4.254   5.229   7.223
   18POPC   C1P 6915   4.260   5.267   7.364
   18POPC   C1Q 6916   4.157   5.194   7.454
   18POPC   C1R 6917   4.154   5.257   7.599
   18POPC    CE 6918   3.484   4.967   5.748
   18POPC    OG 6919   3.404   4.930   5.862
   18POPC   C2A 6920   3.442   4.971   5.981
   18POPC    OH 6921   3.534   5.050   6.004
   18POPC   C2B 6922   3.357   4.909   6.087
   18POPC   C2C 6923   3.441   4.891   6.217
   18POPC   C2D 6924   3.372   4.811   6.323
   18POPC   C2E 6925   3.451   4.793   6.461
   18POPC   C2F 6926   3.380   4.715   6.574
   18POPC   C2G 6927   3.467   4.707   6.705
   18POPC   C2H 6928   3.403   4.613   6.809
   18POPC   C2I 6929   3.493   4.608   6.936
   18POPC   C2J 6930   3.448   4.498   7.033
   18POPC   C2K 6931   3.558   4.489   7.138
   18POPC   C2L 6932   3.520   4.393   7.252
   18POPC   C2M 6933   3.641   4.338   7.326
   18POPC   C2N 6934   3.595   4.275   7.456
   18POPC   C2O 6935   3.711   4.212   7.534
   18POPC   C2P 6936   3.662   4.141   7.661
   19POPC   CN1 6937   2.436   1.113   5.259
   19POPC   CN2 6938   2.640   1.156   5.381
   19POPC   CN3 6939   2.633   1.141   5.129
   19POPC   NTM 6940   2.581   1.084   5.261
   19POPC    CA 6941   2.605   0.927   5.260
   19POPC    CB 6942   2.759   0.898   5.253
   19POPC    OA 6943   2.822   0.956   5.368
   19POPC     P 6944   2.970   0.922   5.400
   19POPC    OB 6945   3.034   1.047   5.365
   19POPC    OC 6946   3.011   0.798   5.334
   19POPC    OD 6947   2.968   0.906   5.557
   19POPC    CC 6948   2.859   0.865   5.635
   19POPC    CD 6949   2.771   0.978   5.685
   19POPC    OE 6950   2.842   1.050   5.783
   19POPC   C1A 6951   2.794   1.171   5.811
   19POPC    OF 6952   2.701   1.229   5.754
   19POPC   C1B 6953   2.890   1.231   5.912
   19POPC   C1C 6954   2.849   1.367   5.975
   19POPC   C1D 6955   2.743   1.342   6.084
   19POPC   C1E 6956   2.722   1.458   6.179
   19POPC   C1F 6957   2.597   1.442   6.269
   19POPC   C1G 6958   2.609   1.554   6.378
   19POPC   C1H 6959   2.510   1.523   6.493
   19POPC   C1I 6960   2.517   1.652   6.576
   19POPC   C1J 6961   2.549   1.661   6.702
   19POPC   C1K 6962   2.596   1.557   6.795
   19POPC   C1L 6963   2.591   1.584   6.950
   19POPC   C1M 6964   2.443   1.582   6.989
   19POPC   C1N 6965   2.413   1.581   7.141
   19POPC   C1O 6966   2.499   1.674   7.233
   19POPC   C1P 6967   2.456   1.683   7.372
   19POPC   C1Q 6968   2.492   1.560   7.459
   19POPC   C1R 6969   2.422   1.567   7.600
   19POPC    CE 6970   2.636   0.932   5.727
   19POPC    OG 6971   2.643   0.839   5.837
   19POPC   C2A 6972   2.607   0.882   5.956
   19POPC    OH 6973   2.554   0.990   5.981
   19POPC   C2B 6974   2.636   0.778   6.059
   19POPC   C2C 6975   2.668   0.848   6.195
   19POPC   C2D 6976   2.720   0.754   6.300
   19POPC   C2E 6977   2.750   0.819   6.443
   19POPC   C2F 6978   2.799   0.724   6.556
   19POPC   C2G 6979   2.822   0.799   6.692
   19POPC   C2H 6980   2.888   0.707   6.796
   19POPC   C2I 6981   2.910   0.787   6.929
   19POPC   C2J 6982   2.997   0.709   7.028
   19POPC   C2K 6983   3.028   0.808   7.140
   19POPC   C2L 6984   3.103   0.739   7.255
   19POPC   C2M 6985   3.184   0.837   7.340
   19POPC   C2N 6986   3.224   0.770   7.469
   19POPC   C2O 6987   3.311   0.859   7.557
   19POPC   C2P 6988   3.358   0.788   7.683
   20POPC   CN1 6989   4.134   4.117   5.250
   20POPC   CN2 6990   4.290   3.983   5.376
   20POPC   CN3 6991   4.280   3.980   5.123
   20POPC   NTM 6992   4.200   3.985   5.253
   20POPC    CA 6993   4.092   3.870   5.249
   20POPC    CB 6994   4.163   3.730   5.244
   20POPC    OA 6995   4.245   3.716   5.361
   20POPC     P 6996   4.308   3.578   5.394
   20POPC    OB 6997   4.447   3.605   5.363
   20POPC    OC 6998   4.238   3.470   5.326
   20POPC    OD 6999   4.291   3.570   5.550
   20POPC    CC 7000   4.189   3.630   5.626
   20POPC    CD 7001   4.222   3.769   5.677
   20POPC    OE 7002   4.320   3.757   5.778
   20POPC   C1A 7003   4.385   3.869   5.808
   20POPC    OF 7004   4.375   3.978   5.751
   20POPC   C1B 7005   4.488   3.830   5.912
   20POPC   C1C 7006   4.569   3.947   5.978
   20POPC   C1D 7007   4.481   4.014   6.084
   20POPC   C1E 7008   4.556   4.102   6.182
   20POPC   C1F 7009   4.465   4.190   6.269
   20POPC   C1G 7010   4.556   4.249   6.381
   20POPC   C1H 7011   4.468   4.308   6.494
   20POPC   C1I 7012   4.572   4.382   6.579
   20POPC   C1J 7013   4.595   4.361   6.707
   20POPC   C1K 7014   4.540   4.260   6.798
   20POPC   C1L 7015   4.554   4.280   6.953
   20POPC   C1M 7016   4.460   4.396   6.990
   20POPC   C1N 7017   4.436   4.419   7.141
   20POPC   C1O 7018   4.560   4.408   7.237
   20POPC   C1P 7019   4.537   4.447   7.375
   20POPC   C1Q 7020   4.460   4.342   7.460
   20POPC   C1R 7021   4.418   4.402   7.600
   20POPC    CE 7022   4.102   3.846   5.716
   20POPC    OG 7023   4.030   3.784   5.824
   20POPC   C2A 7024   4.038   3.838   5.943
   20POPC    OH 7025   4.090   3.947   5.970
   20POPC   C2B 7026   3.971   3.751   6.045
   20POPC   C2C 7027   4.043   3.768   6.182
   20POPC   C2D 7028   3.998   3.669   6.286
   20POPC   C2E 7029   4.064   3.685   6.431
   20POPC   C2F 7030   4.016   3.588   6.542
   20POPC   C2G 7031   4.085   3.616   6.681
   20POPC   C2H 7032   4.051   3.507   6.783
   20POPC   C2I 7033   4.123   3.538   6.918
   20POPC   C2J 7034   4.113   3.421   7.017
   20POPC   C2K 7035   4.207   3.457   7.131
   20POPC   C2L 7036   4.196   3.355   7.246
   20POPC   C2M 7037   4.321   3.352   7.334
   20POPC   C2N 7038   4.289   3.279   7.462
   20POPC   C2O 7039   4.411   3.265   7.554
   20POPC   C2P 7040   4.380   3.184   7.679
   21POPC   CN1 7041   6.067   5.269   5.228
   21POPC   CN2 7042   5.886   5.346   5.368
   21POPC   CN3 7043   5.870   5.339   5.115
   21POPC   NTM 7044   5.959   5.369   5.236
   21POPC    CA 7045   6.018   5.515   5.218
   21POPC    CB 7046   5.901   5.620   5.219
   21POPC    OA 7047   5.831   5.610   5.343
   21POPC     P 7048   5.726   5.719   5.381
   21POPC    OB 7049   5.604   5.643   5.365
   21POPC    OC 7050   5.746   5.841   5.303
   21POPC    OD 7051   5.754   5.741   5.534
   21POPC    CC 7052   5.877   5.725   5.600
   21POPC    CD 7053   5.901   5.586   5.656
   21POPC    OE 7054   5.815   5.569   5.767
   21POPC   C1A 7055   5.798   5.443   5.805
   21POPC    OF 7056   5.840   5.341   5.749
   21POPC   C1B 7057   5.698   5.448   5.919
   21POPC   C1C 7058   5.671   5.314   5.995
   21POPC   C1D 7059   5.787   5.288   6.093
   21POPC   C1E 7060   5.757   5.185   6.200
   21POPC   C1F 7061   5.882   5.139   6.278
   21POPC   C1G 7062   5.828   5.058   6.401
   21POPC   C1H 7063   5.942   5.041   6.504
   21POPC   C1I 7064   5.879   4.939   6.602
   21POPC   C1J 7065   5.862   4.958   6.730
   21POPC   C1K 7066   5.886   5.076   6.813
   21POPC   C1L 7067   5.895   5.061   6.970
   21POPC   C1M 7068   6.027   4.988   6.998
   21POPC   C1N 7069   6.071   4.984   7.146
   21POPC   C1O 7070   5.962   4.956   7.254
   21POPC   C1P 7071   6.010   4.935   7.390
   21POPC   C1Q 7072   6.052   5.064   7.464
   21POPC   C1R 7073   6.125   5.031   7.600
   21POPC    CE 7074   6.044   5.559   5.683
   21POPC    OG 7075   6.099   5.648   5.782
   21POPC   C2A 7076   6.122   5.601   5.902
   21POPC    OH 7077   6.115   5.483   5.937
   21POPC   C2B 7078   6.162   5.712   5.995
   21POPC   C2C 7079   6.115   5.678   6.139
   21POPC   C2D 7080   6.131   5.792   6.236
   21POPC   C2E 7081   6.089   5.761   6.387
   21POPC   C2F 7082   6.109   5.875   6.491
   21POPC   C2G 7083   6.067   5.832   6.637
   21POPC   C2H 7084   6.070   5.952   6.733
   21POPC   C2I 7085   6.027   5.904   6.875
   21POPC   C2J 7086   6.004   6.023   6.970
   21POPC   C2K 7087   5.940   5.962   7.095
   21POPC   C2L 7088   5.925   6.068   7.206
   21POPC   C2M 7089   5.816   6.031   7.307
   21POPC   C2N 7090   5.831   6.118   7.430
   21POPC   C2O 7091   5.722   6.093   7.533
   21POPC   C2P 7092   5.733   6.186   7.653
   22POPC   CN1 7093   5.813   0.937   5.258
   22POPC   CN2 7094   5.972   0.803   5.380
   22POPC   CN3 7095   5.957   0.799   5.128
   22POPC   NTM 7096   5.879   0.805   5.260
   22POPC    CA 7097   5.771   0.690   5.258
   22POPC    CB 7098   5.842   0.550   5.251
   22POPC    OA 7099   5.927   0.536   5.366
   22POPC     P 7100   5.991   0.398   5.398
   22POPC    OB 7101   6.129   0.424   5.364
   22POPC    OC 7102   5.919   0.290   5.331
   22POPC    OD 7103   5.977   0.389   5.555
   22POPC    CC 7104   5.877   0.450   5.633
   22POPC    CD 7105   5.911   0.589   5.683
   22POPC    OE 7106   6.011   0.576   5.782
   22POPC   C1A 7107   6.077   0.688   5.810
   22POPC    OF 7108   6.066   0.798   5.753
   22POPC   C1B 7109   6.182   0.650   5.911
   22POPC   C1C 7110   6.265   0.766   5.975
   22POPC   C1D 7111   6.179   0.834   6.084
   22POPC   C1E 7112   6.257   0.921   6.180
   22POPC   C1F 7113   6.168   1.010   6.269
   22POPC   C1G 7114   6.262   1.069   6.379
   22POPC   C1H 7115   6.176   1.128   6.494
   22POPC   C1I 7116   6.283   1.201   6.577
   22POPC   C1J 7117   6.308   1.181   6.704
   22POPC   C1K 7118   6.255   1.080   6.796
   22POPC   C1L 7119   6.273   1.100   6.951
   22POPC   C1M 7120   6.180   1.216   6.990
   22POPC   C1N 7121   6.160   1.238   7.142
   22POPC   C1O 7122   6.285   1.227   7.235
   22POPC   C1P 7123   6.266   1.266   7.373
   22POPC   C1Q 7124   6.191   1.161   7.460
   22POPC   C1R 7125   6.152   1.221   7.601
   22POPC    CE 7126   5.792   0.666   5.725
   22POPC    OG 7127   5.722   0.604   5.834
   22POPC   C2A 7128   5.733   0.658   5.953
   22POPC    OH 7129   5.786   0.766   5.979
   22POPC   C2B 7130   5.669   0.571   6.056
   22POPC   C2C 7131   5.743   0.588   6.192
   22POPC   C2D 7132   5.701   0.489   6.297
   22POPC   C2E 7133   5.770   0.505   6.440
   22POPC   C2F 7134   5.725   0.408   6.552
   22POPC   C2G 7135   5.798   0.436   6.689
   22POPC   C2H 7136   5.766   0.327   6.792
   22POPC   C2I 7137   5.841   0.358   6.926
   22POPC   C2J 7138   5.833   0.241   7.025
   22POPC   C2K 7139   5.929   0.277   7.137
   22POPC   C2L 7140   5.921   0.175   7.252
   22POPC   C2M 7141   6.048   0.172   7.337
   22POPC   C2N 7142   6.019   0.098   7.466
   22POPC   C2O 7143   6.142   0.085   7.555
   22POPC   C2P 7144   6.115   0.003   7.681
   23POPC   CN1 7145   6.307   4.908   5.271
   23POPC   CN2 7146   6.104   4.859   5.391
   23POPC   CN3 7147   6.118   4.854   5.139
   23POPC   NTM 7148   6.161   4.926   5.267
   23POPC    CA 7149   6.125   5.079   5.251
   23POPC    CB 7150   5.969   5.095   5.239
   23POPC    OA 7151   5.907   5.042   5.357
   23POPC     P 7152   5.756   5.066   5.382
   23POPC    OB 7153   5.703   4.934   5.356
   23POPC    OC 7154   5.707   5.180   5.304
   23POPC    OD 7155   5.752   5.095   5.537
   23POPC    CC 7156   5.854   5.151   5.614
   23POPC    CD 7157   5.950   5.050   5.675
   23POPC    OE 7158   5.882   4.982   5.778
   23POPC   C1A 7159   5.938   4.868   5.817
   23POPC    OF 7160   6.037   4.813   5.767
   23POPC   C1B 7161   5.845   4.809   5.920
   23POPC   C1C 7162   5.894   4.682   5.996
   23POPC   C1D 7163   5.995   4.725   6.105
   23POPC   C1E 7164   6.022   4.620   6.210
   23POPC   C1F 7165   6.142   4.652   6.301
   23POPC   C1G 7166   6.136   4.550   6.419
   23POPC   C1H 7167   6.229   4.598   6.533
   23POPC   C1I 7168   6.229   4.476   6.626
   23POPC   C1J 7169   6.194   4.476   6.752
   23POPC   C1K 7170   6.136   4.583   6.835
   23POPC   C1L 7171   6.138   4.569   6.992
   23POPC   C1M 7172   6.285   4.587   7.034
   23POPC   C1N 7173   6.310   4.603   7.186
   23POPC   C1O 7174   6.229   4.511   7.284
   23POPC   C1P 7175   6.268   4.517   7.424
   23POPC   C1Q 7176   6.219   4.644   7.499
   23POPC   C1R 7177   6.286   4.655   7.641
   23POPC    CE 7178   6.079   5.111   5.716
   23POPC    OG 7179   6.062   5.212   5.818
   23POPC   C2A 7180   6.097   5.182   5.940
   23POPC    OH 7181   6.158   5.081   5.976
   23POPC   C2B 7182   6.057   5.292   6.034
   23POPC   C2C 7183   6.026   5.231   6.174
   23POPC   C2D 7184   5.964   5.328   6.270
   23POPC   C2E 7185   5.935   5.273   6.417
   23POPC   C2F 7186   5.875   5.373   6.520
   23POPC   C2G 7187   5.854   5.308   6.662
   23POPC   C2H 7188   5.777   5.402   6.755
   23POPC   C2I 7189   5.758   5.333   6.894
   23POPC   C2J 7190   5.661   5.411   6.984
   23POPC   C2K 7191   5.635   5.320   7.103
   23POPC   C2L 7192   5.551   5.392   7.210
   23POPC   C2M 7193   5.476   5.294   7.301
   23POPC   C2N 7194   5.426   5.369   7.423
   23POPC   C2O 7195   5.344   5.280   7.517
   23POPC   C2P 7196   5.288   5.358   7.635
   24POPC   CN1 7197   0.018   3.440   5.294
   24POPC   CN2 7198   0.226   3.371   5.396
   24POPC   CN3 7199   0.186   3.361   5.147
   24POPC   NTM 7200   0.126   3.339   5.286
   24POPC    CA 7201   0.065   3.194   5.291
   24POPC    CB 7202   0.179   3.088   5.273
   24POPC    OA 7203   0.275   3.105   5.379
   24POPC     P 7204   0.386   2.998   5.401
   24POPC    OB 7205   0.502   3.071   5.353
   24POPC    OC 7206   0.350   2.872   5.338
   24POPC    OD 7207   0.392   2.987   5.557
   24POPC    CC 7208   0.286   3.009   5.647
   24POPC    CD 7209   0.274   3.152   5.697
   24POPC    OE 7210   0.382   3.176   5.785
   24POPC   C1A 7211   0.407   3.304   5.810
   24POPC    OF 7212   0.353   3.402   5.758
   24POPC   C1B 7213   0.529   3.306   5.899
   24POPC   C1C 7214   0.572   3.444   5.958
   24POPC   C1D 7215   0.480   3.478   6.077
   24POPC   C1E 7216   0.531   3.588   6.167
   24POPC   C1F 7217   0.426   3.641   6.267
   24POPC   C1G 7218   0.505   3.730   6.369
   24POPC   C1H 7219   0.416   3.756   6.493
   24POPC   C1I 7220   0.498   3.863   6.567
   24POPC   C1J 7221   0.543   3.853   6.690
   24POPC   C1K 7222   0.537   3.741   6.784
   24POPC   C1L 7223   0.563   3.767   6.938
   24POPC   C1M 7224   0.440   3.843   6.989
   24POPC   C1N 7225   0.429   3.859   7.142
   24POPC   C1O 7226   0.559   3.893   7.222
   24POPC   C1P 7227   0.542   3.924   7.363
   24POPC   C1Q 7228   0.517   3.800   7.453
   24POPC   C1R 7229   0.475   3.844   7.599
   24POPC    CE 7230   0.140   3.183   5.753
   24POPC    OG 7231   0.109   3.101   5.867
   24POPC   C2A 7232   0.112   3.157   5.986
   24POPC    OH 7233   0.126   3.276   6.009
   24POPC   C2B 7234   0.093   3.053   6.092
   24POPC   C2C 7235   0.171   3.096   6.220
   24POPC   C2D 7236   0.176   2.990   6.326
   24POPC   C2E 7237   0.250   3.030   6.462
   24POPC   C2F 7238   0.253   2.924   6.576
   24POPC   C2G 7239   0.325   2.977   6.705
   24POPC   C2H 7240   0.344   2.864   6.808
   24POPC   C2I 7241   0.417   2.921   6.934
   24POPC   C2J 7242   0.461   2.810   7.030
   24POPC   C2K 7243   0.549   2.878   7.133
   24POPC   C2L 7244   0.589   2.780   7.245
   24POPC   C2M 7245   0.717   2.822   7.317
   24POPC   C2N 7246   0.729   2.744   7.446
   24POPC   C2O 7247   0.858   2.776   7.522
   24POPC   C2P 7248   0.874   2.691   7.648
   25POPC   CN1 7249   5.677   4.087   5.282
   25POPC   CN2 7250   5.577   4.278   5.391
   25POPC   CN3 7251   5.608   4.264   5.140
   25POPC   NTM 7252   5.669   4.234   5.277
   25POPC    CA 7253   5.814   4.297   5.280
   25POPC    CB 7254   5.805   4.453   5.266
   25POPC    OA 7255   5.726   4.504   5.375
   25POPC     P 7256   5.720   4.658   5.400
   25POPC    OB 7257   5.585   4.686   5.356
   25POPC    OC 7258   5.833   4.726   5.336
   25POPC    OD 7259   5.727   4.667   5.557
   25POPC    CC 7260   5.790   4.576   5.643
   25POPC    CD 7261   5.701   4.464   5.693
   25POPC    OE 7262   5.609   4.519   5.784
   25POPC   C1A 7263   5.502   4.443   5.810
   25POPC    OF 7264   5.472   4.336   5.756
   25POPC   C1B 7265   5.415   4.524   5.903
   25POPC   C1C 7266   5.290   4.453   5.963
   25POPC   C1D 7267   5.335   4.362   6.078
   25POPC   C1E 7268   5.224   4.317   6.170
   25POPC   C1F 7269   5.265   4.204   6.267
   25POPC   C1G 7270   5.149   4.192   6.371
   25POPC   C1H 7271   5.198   4.109   6.492
   25POPC   C1I 7272   5.066   4.088   6.569
   25POPC   C1J 7273   5.043   4.122   6.694
   25POPC   C1K 7274   5.127   4.198   6.787
   25POPC   C1L 7275   5.094   4.193   6.941
   25POPC   C1M 7276   5.131   4.052   6.989
   25POPC   C1N 7277   5.131   4.030   7.142
   25POPC   C1O 7278   5.015   4.094   7.226
   25POPC   C1P 7279   5.010   4.056   7.366
   25POPC   C1Q 7280   5.115   4.127   7.455
   25POPC   C1R 7281   5.119   4.063   7.600
   25POPC    CE 7282   5.778   4.347   5.744
   25POPC    OG 7283   5.859   4.382   5.858
   25POPC   C2A 7284   5.821   4.342   5.976
   25POPC    OH 7285   5.728   4.264   6.000
   25POPC   C2B 7286   5.909   4.401   6.082
   25POPC   C2C 7287   5.826   4.421   6.213
   25POPC   C2D 7288   5.897   4.499   6.319
   25POPC   C2E 7289   5.819   4.518   6.457
   25POPC   C2F 7290   5.893   4.594   6.570
   25POPC   C2G 7291   5.807   4.604   6.702
   25POPC   C2H 7292   5.874   4.696   6.805
   25POPC   C2I 7293   5.785   4.703   6.933
   25POPC   C2J 7294   5.833   4.811   7.030
   25POPC   C2K 7295   5.724   4.822   7.136
   25POPC   C2L 7296   5.765   4.917   7.249
   25POPC   C2M 7297   5.645   4.974   7.326
   25POPC   C2N 7298   5.694   5.035   7.455
   25POPC   C2O 7299   5.580   5.101   7.535
   25POPC   C2P 7300   5.631   5.170   7.661
   26POPC   CN1 7301   5.248   0.956   5.307
   26POPC   CN2 7302   5.170   1.147   5.433
   26POPC   CN3 7303   5.137   1.126   5.183
   26POPC   NTM 7304   5.232   1.103   5.301
   26POPC    CA 7305   5.371   1.172   5.267
   26POPC    CB 7306   5.351   1.327   5.253
   26POPC    OA 7307   5.299   1.378   5.377
   26POPC     P 7308   5.293   1.532   5.400
   26POPC    OB 7309   5.150   1.554   5.391
   26POPC    OC 7310   5.383   1.602   5.309
   26POPC    OD 7311   5.338   1.546   5.550
   26POPC    CC 7312   5.425   1.459   5.620
   26POPC    CD 7313   5.356   1.346   5.692
   26POPC    OE 7314   5.286   1.400   5.803
   26POPC   C1A 7315   5.193   1.321   5.855
   26POPC    OF 7316   5.155   1.211   5.812
   26POPC   C1B 7317   5.128   1.401   5.965
   26POPC   C1C 7318   5.025   1.327   6.056
   26POPC   C1D 7319   5.102   1.241   6.158
   26POPC   C1E 7320   5.019   1.194   6.275
   26POPC   C1F 7321   5.088   1.086   6.361
   26POPC   C1G 7322   5.002   1.073   6.491
   26POPC   C1H 7323   5.083   0.995   6.598
   26POPC   C1I 7324   4.976   0.970   6.706
   26POPC   C1J 7325   4.983   1.008   6.831
   26POPC   C1K 7326   5.084   1.089   6.900
   26POPC   C1L 7327   5.090   1.088   7.057
   26POPC   C1M 7328   5.144   0.950   7.097
   26POPC   C1N 7329   5.183   0.932   7.245
   26POPC   C1O 7330   5.089   0.994   7.354
   26POPC   C1P 7331   5.120   0.960   7.492
   26POPC   C1Q 7332   5.241   1.037   7.551
   26POPC   C1R 7333   5.283   0.978   7.691
   26POPC    CE 7334   5.448   1.234   5.725
   26POPC    OG 7335   5.554   1.275   5.814
   26POPC   C2A 7336   5.548   1.237   5.939
   26POPC    OH 7337   5.467   1.156   5.987
   26POPC   C2B 7338   5.656   1.303   6.018
   26POPC   C2C 7339   5.607   1.323   6.165
   26POPC   C2D 7340   5.699   1.407   6.248
   26POPC   C2E 7341   5.657   1.427   6.401
   26POPC   C2F 7342   5.753   1.509   6.491
   26POPC   C2G 7343   5.703   1.519   6.640
   26POPC   C2H 7344   5.789   1.617   6.722
   26POPC   C2I 7345   5.734   1.623   6.868
   26POPC   C2J 7346   5.799   1.737   6.948
   26POPC   C2K 7347   5.720   1.746   7.077
   26POPC   C2L 7348   5.784   1.846   7.175
   26POPC   C2M 7349   5.684   1.900   7.278
   26POPC   C2N 7350   5.760   1.967   7.390
   26POPC   C2O 7351   5.667   2.030   7.494
   26POPC   C2P 7352   5.744   2.105   7.602
   27POPC   CN1 7353   0.525   0.980   5.300
   27POPC   CN2 7354   0.331   1.039   5.430
   27POPC   CN3 7355   0.320   0.999   5.181
   27POPC   NTM 7356   0.400   1.059   5.296
   27POPC    CA 7357   0.432   1.210   5.260
   27POPC    CB 7358   0.299   1.291   5.249
   27POPC    OA 7359   0.230   1.284   5.375
   27POPC     P 7360   0.106   1.376   5.400
   27POPC    OB 7361  -0.000   1.278   5.394
   27POPC    OC 7362   0.105   1.489   5.308
   27POPC    OD 7363   0.128   1.421   5.549
   27POPC    CC 7364   0.251   1.435   5.615
   27POPC    CD 7365   0.299   1.311   5.688
   27POPC    OE 7366   0.216   1.291   5.801
   27POPC   C1A 7367   0.221   1.170   5.854
   27POPC    OF 7368   0.282   1.071   5.810
   27POPC   C1B 7369   0.120   1.170   5.967
   27POPC   C1C 7370   0.116   1.044   6.059
   27POPC   C1D 7371   0.234   1.051   6.158
   27POPC   C1E 7372   0.222   0.958   6.276
   27POPC   C1F 7373   0.352   0.945   6.359
   27POPC   C1G 7374   0.312   0.871   6.491
   27POPC   C1H 7375   0.426   0.886   6.594
   27POPC   C1I 7376   0.381   0.788   6.704
   27POPC   C1J 7377   0.360   0.818   6.830
   27POPC   C1K 7378   0.361   0.948   6.897
   27POPC   C1L 7379   0.370   0.953   7.055
   27POPC   C1M 7380   0.513   0.910   7.090
   27POPC   C1N 7381   0.555   0.931   7.238
   27POPC   C1O 7382   0.451   0.897   7.349
   27POPC   C1P 7383   0.501   0.901   7.486
   27POPC   C1Q 7384   0.517   1.044   7.544
   27POPC   C1R 7385   0.594   1.041   7.682
   27POPC    CE 7386   0.444   1.313   5.717
   27POPC    OG 7387   0.481   1.422   5.804
   27POPC   C2A 7388   0.510   1.394   5.928
   27POPC    OH 7389   0.524   1.282   5.977
   27POPC   C2B 7390   0.529   1.521   6.006
   27POPC   C2C 7391   0.486   1.496   6.154
   27POPC   C2D 7392   0.481   1.622   6.237
   27POPC   C2E 7393   0.443   1.603   6.391
   27POPC   C2F 7394   0.441   1.730   6.480
   27POPC   C2G 7395   0.406   1.698   6.630
   27POPC   C2H 7396   0.385   1.827   6.711
   27POPC   C2I 7397   0.350   1.789   6.859
   27POPC   C2J 7398   0.305   1.912   6.939
   27POPC   C2K 7399   0.251   1.857   7.070
   27POPC   C2L 7400   0.216   1.970   7.168
   27POPC   C2M 7401   0.114   1.927   7.274
   27POPC   C2N 7402   0.112   2.029   7.385
   27POPC   C2O 7403   0.007   1.997   7.492
   27POPC   C2P 7404   0.000   2.105   7.600
   28POPC   CN1 7405   4.181   0.104   5.302
   28POPC   CN2 7406   4.239   0.303   5.424
   28POPC   CN3 7407   4.206   0.303   5.174
   28POPC   NTM 7408   4.262   0.227   5.294
   28POPC    CA 7409   4.413   0.192   5.264
   28POPC    CB 7410   4.496   0.324   5.249
   28POPC    OA 7411   4.487   0.399   5.371
   28POPC     P 7412   4.579   0.522   5.393
   28POPC    OB 7413   4.483   0.629   5.379
   28POPC    OC 7414   4.695   0.517   5.304
   28POPC    OD 7415   4.620   0.507   5.544
   28POPC    CC 7416   4.631   0.387   5.616
   28POPC    CD 7417   4.504   0.345   5.687
   28POPC    OE 7418   4.483   0.433   5.795
   28POPC   C1A 7419   4.360   0.432   5.846
   28POPC    OF 7420   4.262   0.370   5.802
   28POPC   C1B 7421   4.359   0.538   5.954
   28POPC   C1C 7422   4.230   0.548   6.042
   28POPC   C1D 7423   4.233   0.435   6.147
   28POPC   C1E 7424   4.137   0.454   6.262
   28POPC   C1F 7425   4.120   0.328   6.350
   28POPC   C1G 7426   4.043   0.375   6.478
   28POPC   C1H 7427   4.055   0.266   6.587
   28POPC   C1I 7428   3.954   0.317   6.692
   28POPC   C1J 7429   3.981   0.345   6.817
   28POPC   C1K 7430   4.109   0.345   6.888
   28POPC   C1L 7431   4.110   0.344   7.046
   28POPC   C1M 7432   4.064   0.203   7.087
   28POPC   C1N 7433   4.080   0.168   7.237
   28POPC   C1O 7434   4.045   0.278   7.343
   28POPC   C1P 7435   4.045   0.235   7.482
   28POPC   C1Q 7436   4.186   0.219   7.544
   28POPC   C1R 7437   4.178   0.150   7.685
   28POPC    CE 7438   4.504   0.200   5.723
   28POPC    OG 7439   4.610   0.167   5.815
   28POPC   C2A 7440   4.579   0.144   5.940
   28POPC    OH 7441   4.465   0.134   5.986
   28POPC   C2B 7442   4.703   0.128   6.022
   28POPC   C2C 7443   4.675   0.177   6.167
   28POPC   C2D 7444   4.799   0.186   6.253
   28POPC   C2E 7445   4.776   0.231   6.404
   28POPC   C2F 7446   4.900   0.236   6.496
   28POPC   C2G 7447   4.865   0.279   6.644
   28POPC   C2H 7448   4.992   0.301   6.727
   28POPC   C2I 7449   4.951   0.345   6.872
   28POPC   C2J 7450   5.072   0.392   6.953
   28POPC   C2K 7451   5.014   0.452   7.080
   28POPC   C2L 7452   5.125   0.491   7.179
   28POPC   C2M 7453   5.081   0.599   7.279
   28POPC   C2N 7454   5.180   0.605   7.392
   28POPC   C2O 7455   5.147   0.715   7.493
   28POPC   C2P 7456   5.251   0.726   7.603
   29POPC   CN1 7457   2.836   2.563   5.294
   29POPC   CN2 7458   2.637   2.602   5.425
   29POPC   CN3 7459   2.631   2.562   5.175
   29POPC   NTM 7460   2.704   2.630   5.291
   29POPC    CA 7461   2.721   2.783   5.256
   29POPC    CB 7462   2.579   2.850   5.245
   29POPC    OA 7463   2.511   2.835   5.370
   29POPC     P 7464   2.379   2.914   5.396
   29POPC    OB 7465   2.283   2.805   5.390
   29POPC    OC 7466   2.367   3.027   5.305
   29POPC    OD 7467   2.396   2.960   5.546
   29POPC    CC 7468   2.516   2.986   5.612
   29POPC    CD 7469   2.577   2.867   5.684
   29POPC    OE 7470   2.496   2.839   5.796
   29POPC   C1A 7471   2.514   2.717   5.849
   29POPC    OF 7472   2.584   2.626   5.805
   29POPC   C1B 7473   2.414   2.707   5.962
   29POPC   C1C 7474   2.422   2.580   6.053
   29POPC   C1D 7475   2.538   2.599   6.152
   29POPC   C1E 7476   2.536   2.504   6.270
   29POPC   C1F 7477   2.666   2.504   6.353
   29POPC   C1G 7478   2.634   2.425   6.484
   29POPC   C1H 7479   2.746   2.452   6.588
   29POPC   C1I 7480   2.711   2.349   6.697
   29POPC   C1J 7481   2.687   2.376   6.823
   29POPC   C1K 7482   2.674   2.505   6.891
   29POPC   C1L 7483   2.683   2.510   7.048
   29POPC   C1M 7484   2.829   2.481   7.084
   29POPC   C1N 7485   2.869   2.505   7.232
   29POPC   C1O 7486   2.768   2.460   7.343
   29POPC   C1P 7487   2.817   2.468   7.480
   29POPC   C1Q 7488   2.819   2.612   7.538
   29POPC   C1R 7489   2.895   2.616   7.677
   29POPC    CE 7490   2.721   2.884   5.713
   29POPC    OG 7491   2.746   2.995   5.801
   29POPC   C2A 7492   2.778   2.970   5.925
   29POPC    OH 7493   2.803   2.860   5.973
   29POPC   C2B 7494   2.783   3.097   6.004
   29POPC   C2C 7495   2.744   3.068   6.152
   29POPC   C2D 7496   2.725   3.191   6.235
   29POPC   C2E 7497   2.689   3.168   6.389
   29POPC   C2F 7498   2.674   3.293   6.479
   29POPC   C2G 7499   2.642   3.257   6.629
   29POPC   C2H 7500   2.608   3.382   6.710
   29POPC   C2I 7501   2.576   3.341   6.858
   29POPC   C2J 7502   2.519   3.457   6.939
   29POPC   C2K 7503   2.471   3.396   7.070
   29POPC   C2L 7504   2.424   3.504   7.168
   29POPC   C2M 7505   2.327   3.450   7.273
   29POPC   C2N 7506   2.315   3.551   7.385
   29POPC   C2O 7507   2.214   3.508   7.492
   29POPC   C2P 7508   2.195   3.613   7.600
   30POPC   CN1 7509   4.823   3.808   5.336
   30POPC   CN2 7510   4.842   3.590   5.439
   30POPC   CN3 7511   4.855   3.624   5.188
   30POPC   NTM 7512   4.786   3.666   5.319
   30POPC    CA 7513   4.630   3.652   5.298
   30POPC    CB 7514   4.593   3.502   5.273
   30POPC    OA 7515   4.635   3.424   5.385
   30POPC     P 7516   4.589   3.276   5.398
   30POPC    OB 7517   4.714   3.208   5.369
   30POPC    OC 7518   4.472   3.250   5.315
   30POPC    OD 7519   4.557   3.263   5.551
   30POPC    CC 7520   4.513   3.366   5.636
   30POPC    CD 7521   4.624   3.442   5.707
   30POPC    OE 7522   4.681   3.356   5.804
   30POPC   C1A 7523   4.800   3.393   5.849
   30POPC    OF 7524   4.870   3.487   5.808
   30POPC   C1B 7525   4.844   3.285   5.945
   30POPC   C1C 7526   4.974   3.310   6.026
   30POPC   C1D 7527   4.943   3.406   6.142
   30POPC   C1E 7528   5.048   3.410   6.251
   30POPC   C1F 7529   5.030   3.526   6.351
   30POPC   C1G 7530   5.127   3.496   6.470
   30POPC   C1H 7531   5.089   3.585   6.590
   30POPC   C1I 7532   5.208   3.561   6.685
   30POPC   C1J 7533   5.200   3.516   6.808
   30POPC   C1K 7534   5.085   3.467   6.883
   30POPC   C1L 7535   5.095   3.455   7.040
   30POPC   C1M 7536   5.096   3.599   7.095
   30POPC   C1N 7537   5.080   3.613   7.248
   30POPC   C1O 7538   5.157   3.512   7.339
   30POPC   C1P 7539   5.153   3.541   7.482
   30POPC   C1Q 7540   5.019   3.504   7.551
   30POPC   C1R 7541   5.014   3.559   7.699
   30POPC    CE 7542   4.581   3.574   5.757
   30POPC    OG 7543   4.476   3.562   5.856
   30POPC   C2A 7544   4.508   3.584   5.982
   30POPC    OH 7545   4.615   3.627   6.024
   30POPC   C2B 7546   4.391   3.551   6.070
   30POPC   C2C 7547   4.444   3.501   6.208
   30POPC   C2D 7548   4.337   3.445   6.297
   30POPC   C2E 7549   4.384   3.397   6.442
   30POPC   C2F 7550   4.274   3.343   6.538
   30POPC   C2G 7551   4.332   3.302   6.678
   30POPC   C2H 7552   4.226   3.231   6.764
   30POPC   C2I 7553   4.289   3.191   6.901
   30POPC   C2J 7554   4.196   3.100   6.982
   30POPC   C2K 7555   4.280   3.051   7.100
   30POPC   C2L 7556   4.195   2.970   7.198
   30POPC   C2M 7557   4.279   2.875   7.284
   30POPC   C2N 7558   4.196   2.826   7.400
   30POPC   C2O 7559   4.270   2.725   7.488
   30POPC   C2P 7560   4.183   2.671   7.600
   31POPC   CN1 7561   2.624   5.910   5.307
   31POPC   CN2 7562   2.736   6.088   5.426
   31POPC   CN3 7563   2.703   6.090   5.175
   31POPC   NTM 7564   2.736   6.005   5.298
   31POPC    CA 7565   2.871   5.928   5.269
   31POPC    CB 7566   2.988   6.030   5.251
   31POPC    OA 7567   3.000   6.108   5.371
   31POPC     P 7568   3.124   6.201   5.391
   31POPC    OB 7569   3.062   6.331   5.374
   31POPC    OC 7570   3.234   6.161   5.303
   31POPC    OD 7571   3.159   6.179   5.542
   31POPC    CC 7572   3.136   6.063   5.617
   31POPC    CD 7573   3.002   6.059   5.689
   31POPC    OE 7574   3.007   6.153   5.795
   31POPC   C1A 7575   2.888   6.188   5.844
   31POPC    OF 7576   2.777   6.155   5.802
   31POPC   C1B 7577   2.917   6.292   5.950
   31POPC   C1C 7578   2.797   6.340   6.037
   31POPC   C1D 7579   2.768   6.234   6.144
   31POPC   C1E 7580   2.681   6.282   6.258
   31POPC   C1F 7581   2.630   6.168   6.350
   31POPC   C1G 7582   2.569   6.239   6.475
   31POPC   C1H 7583   2.549   6.134   6.587
   31POPC   C1I 7584   2.467   6.214   6.690
   31POPC   C1J 7585   2.501   6.235   6.815
   31POPC   C1K 7586   2.624   6.201   6.887
   31POPC   C1L 7587   2.625   6.204   7.044
   31POPC   C1M 7588   2.541   6.083   7.089
   31POPC   C1N 7589   2.547   6.049   7.240
   31POPC   C1O 7590   2.544   6.167   7.342
   31POPC   C1P 7591   2.532   6.129   7.482
   31POPC   C1Q 7592   2.663   6.076   7.546
   31POPC   C1R 7593   2.636   6.015   7.689
   31POPC    CE 7594   2.961   5.922   5.728
   31POPC    OG 7595   3.054   5.863   5.821
   31POPC   C2A 7596   3.017   5.852   5.947
   31POPC    OH 7597   2.905   5.876   5.992
   31POPC   C2B 7598   3.132   5.804   6.030
   31POPC   C2C 7599   3.119   5.863   6.174
   31POPC   C2D 7600   3.240   5.839   6.260
   31POPC   C2E 7601   3.231   5.892   6.410
   31POPC   C2F 7602   3.352   5.864   6.503
   31POPC   C2G 7603   3.331   5.919   6.649
   31POPC   C2H 7604   3.459   5.907   6.732
   31POPC   C2I 7605   3.432   5.963   6.876
   31POPC   C2J 7606   3.562   5.977   6.957
   31POPC   C2K 7607   3.523   6.054   7.082
   31POPC   C2L 7608   3.641   6.062   7.180
   31POPC   C2M 7609   3.628   6.181   7.277
   31POPC   C2N 7610   3.725   6.161   7.391
   31POPC   C2O 7611   3.724   6.279   7.490
   31POPC   C2P 7612   3.828   6.263   7.600
   32POPC   CN1 7613   3.893   1.099   5.265
   32POPC   CN2 7614   3.914   1.308   5.383
   32POPC   CN3 7615   3.928   1.291   5.131
   32POPC   NTM 7616   3.965   1.227   5.265
   32POPC    CA 7617   4.122   1.202   5.265
   32POPC    CB 7618   4.197   1.339   5.257
   32POPC    OA 7619   4.160   1.419   5.370
   32POPC     P 7620   4.239   1.550   5.400
   32POPC    OB 7621   4.140   1.649   5.362
   32POPC    OC 7622   4.369   1.549   5.335
   32POPC    OD 7623   4.251   1.546   5.557
   32POPC    CC 7624   4.256   1.431   5.638
   32POPC    CD 7625   4.121   1.383   5.687
   32POPC    OE 7626   4.075   1.475   5.784
   32POPC   C1A 7627   3.944   1.467   5.810
   32POPC    OF 7628   3.861   1.396   5.754
   32POPC   C1B 7629   3.916   1.578   5.909
   32POPC   C1C 7630   3.773   1.582   5.971
   32POPC   C1D 7631   3.764   1.476   6.082
   32POPC   C1E 7632   3.646   1.493   6.176
   32POPC   C1F 7633   3.622   1.372   6.268
   32POPC   C1G 7634   3.519   1.419   6.376
   32POPC   C1H 7635   3.517   1.317   6.492
   32POPC   C1I 7636   3.395   1.366   6.573
   32POPC   C1J 7637   3.396   1.402   6.699
   32POPC   C1K 7638   3.509   1.416   6.792
   32POPC   C1L 7639   3.480   1.423   6.947
   32POPC   C1M 7640   3.436   1.281   6.989
   32POPC   C1N 7641   3.426   1.255   7.141
   32POPC   C1O 7642   3.364   1.367   7.231
   32POPC   C1P 7643   3.341   1.332   7.370
   32POPC   C1Q 7644   3.469   1.330   7.457
   32POPC   C1R 7645   3.439   1.268   7.600
   32POPC    CE 7646   4.124   1.241   5.732
   32POPC    OG 7647   4.213   1.221   5.843
   32POPC   C2A 7648   4.160   1.202   5.962
   32POPC    OH 7649   4.041   1.186   5.986
   32POPC   C2B 7650   4.267   1.200   6.066
   32POPC   C2C 7651   4.210   1.255   6.200
   32POPC   C2D 7652   4.314   1.277   6.306
   32POPC   C2E 7653   4.260   1.328   6.448
   32POPC   C2F 7654   4.365   1.347   6.561
   32POPC   C2G 7655   4.300   1.395   6.696
   32POPC   C2H 7656   4.407   1.432   6.799
   32POPC   C2I 7657   4.337   1.479   6.931
   32POPC   C2J 7658   4.437   1.540   7.030
   32POPC   C2K 7659   4.352   1.602   7.140
   32POPC   C2L 7660   4.440   1.654   7.255
   32POPC   C2M 7661   4.371   1.763   7.337
   32POPC   C2N 7662   4.446   1.783   7.467
   32POPC   C2O 7663   4.387   1.895   7.552
   32POPC   C2P 7664   4.468   1.920   7.679
   33POPC   CN1 7665   6.163   0.850   5.286
   33POPC   CN2 7666   6.005   1.000   5.390
   33POPC   CN3 7667   6.041   0.993   5.140
   33POPC   NTM 7668   6.107   0.987   5.278
   33POPC    CA 7669   6.223   1.094   5.281
   33POPC    CB 7670   6.163   1.238   5.264
   33POPC    OA 7671   6.071   1.262   5.372
   33POPC     P 7672   6.015   1.406   5.394
   33POPC    OB 7673   5.879   1.388   5.349
   33POPC    OC 7674   6.100   1.505   5.330
   33POPC    OD 7675   6.017   1.418   5.551
   33POPC    CC 7676   6.105   1.354   5.639
   33POPC    CD 7677   6.057   1.220   5.690
   33POPC    OE 7678   5.951   1.243   5.780
   33POPC   C1A 7679   5.875   1.137   5.806
   33POPC    OF 7680   5.882   1.025   5.753
   33POPC   C1B 7681   5.765   1.187   5.897
   33POPC   C1C 7682   5.669   1.079   5.957
   33POPC   C1D 7683   5.740   1.010   6.075
   33POPC   C1E 7684   5.649   0.931   6.167
   33POPC   C1F 7685   5.724   0.840   6.266
   33POPC   C1G 7686   5.617   0.792   6.370
   33POPC   C1H 7687   5.688   0.732   6.492
   33POPC   C1I 7688   5.571   0.669   6.569
   33POPC   C1J 7689   5.536   0.696   6.692
   33POPC   C1K 7690   5.589   0.796   6.785
   33POPC   C1L 7691   5.558   0.783   6.939
   33POPC   C1M 7692   5.639   0.662   6.989
   33POPC   C1N 7693   5.645   0.644   7.143
   33POPC   C1O 7694   5.513   0.668   7.224
   33POPC   C1P 7695   5.519   0.632   7.365
   33POPC   C1Q 7696   5.594   0.734   7.454
   33POPC   C1R 7697   5.616   0.678   7.600
   33POPC    CE 7698   6.167   1.136   5.744
   33POPC    OG 7699   6.232   1.197   5.857
   33POPC   C2A 7700   6.207   1.148   5.976
   33POPC    OH 7701   6.145   1.045   6.001
   33POPC   C2B 7702   6.269   1.234   6.082
   33POPC   C2C 7703   6.183   1.227   6.211
   33POPC   C2D 7704   6.224   1.327   6.316
   33POPC   C2E 7705   6.143   1.321   6.454
   33POPC   C2F 7706   6.186   1.418   6.566
   33POPC   C2G 7707   6.101   1.401   6.697
   33POPC   C2H 7708   6.133   1.512   6.799
   33POPC   C2I 7709   6.045   1.490   6.927
   33POPC   C2J 7710   6.053   1.610   7.022
   33POPC   C2K 7711   5.946   1.586   7.127
   33POPC   C2L 7712   5.953   1.691   7.239
   33POPC   C2M 7713   5.820   1.706   7.314
   33POPC   C2N 7714   5.844   1.782   7.442
   33POPC   C2O 7715   5.714   1.808   7.520
   33POPC   C2P 7716   5.738   1.891   7.645
   34POPC   CN1 7717   2.687   1.768   5.220
   34POPC   CN2 7718   2.846   1.649   5.358
   34POPC   CN3 7719   2.869   1.665   5.107
   34POPC   NTM 7720   2.773   1.648   5.225
   34POPC    CA 7721   2.686   1.518   5.198
   34POPC    CB 7722   2.780   1.392   5.195
   34POPC    OA 7723   2.847   1.381   5.321
   34POPC     P 7724   2.928   1.252   5.354
   34POPC    OB 7725   3.063   1.302   5.344
   34POPC    OC 7726   2.885   1.140   5.271
   34POPC    OD 7727   2.892   1.229   5.506
   34POPC    CC 7728   2.774   1.266   5.571
   34POPC    CD 7729   2.777   1.404   5.634
   34POPC    OE 7730   2.862   1.399   5.747
   34POPC   C1A 7731   2.904   1.517   5.791
   34POPC    OF 7732   2.883   1.628   5.740
   34POPC   C1B 7733   2.997   1.486   5.906
   34POPC   C1C 7734   3.049   1.608   5.989
   34POPC   C1D 7735   2.939   1.652   6.086
   34POPC   C1E 7736   2.986   1.742   6.198
   34POPC   C1F 7737   2.872   1.809   6.278
   34POPC   C1G 7738   2.938   1.871   6.405
   34POPC   C1H 7739   2.828   1.907   6.507
   34POPC   C1I 7740   2.907   1.988   6.610
   34POPC   C1J 7741   2.917   1.961   6.738
   34POPC   C1K 7742   2.868   1.846   6.815
   34POPC   C1L 7743   2.859   1.855   6.972
   34POPC   C1M 7744   2.743   1.952   7.002
   34POPC   C1N 7745   2.698   1.959   7.150
   34POPC   C1O 7746   2.808   1.959   7.261
   34POPC   C1P 7747   2.762   1.983   7.397
   34POPC   C1Q 7748   2.694   1.861   7.464
   34POPC   C1R 7749   2.625   1.902   7.600
   34POPC    CE 7750   2.641   1.459   5.660
   34POPC    OG 7751   2.568   1.378   5.754
   34POPC   C2A 7752   2.552   1.423   5.876
   34POPC    OH 7753   2.582   1.535   5.916
   34POPC   C2B 7754   2.488   1.318   5.962
   34POPC   C2C 7755   2.538   1.335   6.109
   34POPC   C2D 7756   2.497   1.222   6.200
   34POPC   C2E 7757   2.541   1.237   6.353
   34POPC   C2F 7758   2.496   1.125   6.450
   34POPC   C2G 7759   2.542   1.151   6.598
   34POPC   C2H 7760   2.513   1.030   6.688
   34POPC   C2I 7761   2.562   1.061   6.833
   34POPC   C2J 7762   2.559   0.937   6.923
   34POPC   C2K 7763   2.630   0.977   7.051
   34POPC   C2L 7764   2.622   0.866   7.156
   34POPC   C2M 7765   2.734   0.875   7.261
   34POPC   C2N 7766   2.698   0.787   7.379
   34POPC   C2O 7767   2.808   0.785   7.485
   34POPC   C2P 7768   2.776   0.690   7.600
   35POPC   CN1 7769   3.366   5.667   5.333
   35POPC   CN2 7770   3.369   5.457   5.452
   35POPC   CN3 7771   3.406   5.473   5.202
   35POPC   NTM 7772   3.327   5.525   5.322
   35POPC    CA 7773   3.172   5.514   5.288
   35POPC    CB 7774   3.134   5.363   5.269
   35POPC    OA 7775   3.163   5.292   5.390
   35POPC     P 7776   3.112   5.146   5.408
   35POPC    OB 7777   3.236   5.073   5.395
   35POPC    OC 7778   3.002   5.117   5.316
   35POPC    OD 7779   3.065   5.144   5.558
   35POPC    CC 7780   3.017   5.254   5.631
   35POPC    CD 7781   3.123   5.331   5.707
   35POPC    OE 7782   3.167   5.252   5.814
   35POPC   C1A 7783   3.283   5.289   5.868
   35POPC    OF 7784   3.359   5.378   5.828
   35POPC   C1B 7785   3.314   5.186   5.975
   35POPC   C1C 7786   3.438   5.214   6.066
   35POPC   C1D 7787   3.398   5.318   6.172
   35POPC   C1E 7788   3.493   5.327   6.289
   35POPC   C1F 7789   3.469   5.450   6.380
   35POPC   C1G 7790   3.554   5.425   6.509
   35POPC   C1H 7791   3.508   5.523   6.619
   35POPC   C1I 7792   3.617   5.503   6.726
   35POPC   C1J 7793   3.597   5.466   6.850
   35POPC   C1K 7794   3.473   5.425   6.918
   35POPC   C1L 7795   3.468   5.423   7.075
   35POPC   C1M 7796   3.469   5.570   7.120
   35POPC   C1N 7797   3.439   5.596   7.269
   35POPC   C1O 7798   3.504   5.499   7.374
   35POPC   C1P 7799   3.488   5.537   7.514
   35POPC   C1Q 7800   3.348   5.508   7.573
   35POPC   C1R 7801   3.330   5.574   7.715
   35POPC    CE 7802   3.079   5.468   5.744
   35POPC    OG 7803   2.965   5.466   5.834
   35POPC   C2A 7804   2.985   5.494   5.960
   35POPC    OH 7805   3.090   5.537   6.009
   35POPC   C2B 7806   2.860   5.470   6.039
   35POPC   C2C 7807   2.899   5.428   6.184
   35POPC   C2D 7808   2.782   5.381   6.266
   35POPC   C2E 7809   2.814   5.342   6.418
   35POPC   C2F 7810   2.695   5.298   6.506
   35POPC   C2G 7811   2.738   5.264   6.654
   35POPC   C2H 7812   2.623   5.202   6.733
   35POPC   C2I 7813   2.671   5.170   6.878
   35POPC   C2J 7814   2.569   5.087   6.956
   35POPC   C2K 7815   2.640   5.044   7.083
   35POPC   C2L 7816   2.544   4.971   7.179
   35POPC   C2M 7817   2.617   4.880   7.278
   35POPC   C2N 7818   2.521   4.842   7.389
   35POPC   C2O 7819   2.585   4.745   7.489
   35POPC   C2P 7820   2.486   4.700   7.596
   36POPC   CN1 7821   3.066   2.158   5.286
   36POPC   CN2 7822   2.944   2.336   5.392
   36POPC   CN3 7823   2.978   2.324   5.142
   36POPC   NTM 7824   3.041   2.303   5.280
   36POPC    CA 7825   3.177   2.383   5.284
   36POPC    CB 7826   3.149   2.536   5.269
   36POPC    OA 7827   3.064   2.579   5.376
   36POPC     P 7828   3.039   2.731   5.400
   36POPC    OB 7829   2.902   2.742   5.355
   36POPC    OC 7830   3.143   2.811   5.337
   36POPC    OD 7831   3.044   2.741   5.557
   36POPC    CC 7832   3.116   2.659   5.644
   36POPC    CD 7833   3.041   2.538   5.694
   36POPC    OE 7834   2.942   2.582   5.785
   36POPC   C1A 7835   2.845   2.494   5.810
   36POPC    OF 7836   2.829   2.384   5.756
   36POPC   C1B 7837   2.748   2.565   5.902
   36POPC   C1C 7838   2.632   2.479   5.961
   36POPC   C1D 7839   2.687   2.395   6.078
   36POPC   C1E 7840   2.581   2.337   6.169
   36POPC   C1F 7841   2.635   2.231   6.267
   36POPC   C1G 7842   2.520   2.206   6.371
   36POPC   C1H 7843   2.578   2.131   6.493
   36POPC   C1I 7844   2.449   2.093   6.569
   36POPC   C1J 7845   2.421   2.126   6.693
   36POPC   C1K 7846   2.494   2.212   6.786
   36POPC   C1L 7847   2.461   2.204   6.940
   36POPC   C1M 7848   2.514   2.069   6.989
   36POPC   C1N 7849   2.516   2.048   7.142
   36POPC   C1O 7850   2.393   2.098   7.225
   36POPC   C1P 7851   2.391   2.061   7.365
   36POPC   C1Q 7852   2.486   2.144   7.455
   36POPC   C1R 7853   2.496   2.083   7.600
   36POPC    CE 7854   3.131   2.432   5.747
   36POPC    OG 7855   3.207   2.477   5.861
   36POPC   C2A 7856   3.173   2.433   5.979
   36POPC    OH 7857   3.090   2.345   6.003
   36POPC   C2B 7858   3.252   2.503   6.085
   36POPC   C2C 7859   3.166   2.514   6.215
   36POPC   C2D 7860   3.227   2.601   6.321
   36POPC   C2E 7861   3.146   2.611   6.459
   36POPC   C2F 7862   3.209   2.697   6.572
   36POPC   C2G 7863   3.122   2.697   6.703
   36POPC   C2H 7864   3.176   2.797   6.806
   36POPC   C2I 7865   3.085   2.794   6.933
   36POPC   C2J 7866   3.119   2.908   7.030
   36POPC   C2K 7867   3.009   2.905   7.135
   36POPC   C2L 7868   3.037   3.006   7.248
   36POPC   C2M 7869   2.911   3.048   7.323
   36POPC   C2N 7870   2.950   3.116   7.452
   36POPC   C2O 7871   2.829   3.168   7.530
   36POPC   C2P 7872   2.870   3.244   7.656
   37POPC   CN1 7873   2.890   0.429   5.300
   37POPC   CN2 7874   2.733   0.299   5.431
   37POPC   CN3 7875   2.761   0.269   5.181
   37POPC   NTM 7876   2.755   0.369   5.297
   37POPC    CA 7877   2.647   0.479   5.261
   37POPC    CB 7878   2.506   0.413   5.249
   37POPC    OA 7879   2.473   0.351   5.375
   37POPC     P 7880   2.329   0.299   5.400
   37POPC    OB 7881   2.352   0.156   5.394
   37POPC    OC 7882   2.234   0.361   5.308
   37POPC    OD 7883   2.303   0.341   5.549
   37POPC    CC 7884   2.359   0.451   5.616
   37POPC    CD 7885   2.489   0.422   5.688
   37POPC    OE 7886   2.459   0.342   5.801
   37POPC   C1A 7887   2.564   0.278   5.854
   37POPC    OF 7888   2.679   0.275   5.810
   37POPC   C1B 7889   2.507   0.195   5.967
   37POPC   C1C 7890   2.610   0.121   6.058
   37POPC   C1D 7891   2.669   0.223   6.158
   37POPC   C1E 7892   2.740   0.161   6.276
   37POPC   C1F 7893   2.823   0.262   6.359
   37POPC   C1G 7894   2.862   0.187   6.490
   37POPC   C1H 7895   2.912   0.290   6.595
   37POPC   C1I 7896   2.969   0.198   6.704
   37POPC   C1J 7897   2.932   0.196   6.830
   37POPC   C1K 7898   2.825   0.269   6.897
   37POPC   C1L 7899   2.825   0.279   7.055
   37POPC   C1M 7900   2.941   0.373   7.091
   37POPC   C1N 7901   2.946   0.420   7.238
   37POPC   C1O 7902   2.917   0.313   7.350
   37POPC   C1P 7903   2.941   0.357   7.487
   37POPC   C1Q 7904   2.831   0.449   7.544
   37POPC   C1R 7905   2.875   0.511   7.683
   37POPC    CE 7906   2.568   0.544   5.718
   37POPC    OG 7907   2.497   0.635   5.805
   37POPC   C2A 7908   2.536   0.643   5.929
   37POPC    OH 7909   2.637   0.592   5.978
   37POPC   C2B 7910   2.441   0.728   6.008
   37POPC   C2C 7911   2.438   0.679   6.156
   37POPC   C2D 7912   2.330   0.743   6.238
   37POPC   C2E 7913   2.325   0.701   6.392
   37POPC   C2F 7914   2.218   0.769   6.481
   37POPC   C2G 7915   2.225   0.721   6.631
   37POPC   C2H 7916   2.106   0.775   6.712
   37POPC   C2I 7917   2.117   0.724   6.860
   37POPC   C2J 7918   1.990   0.754   6.940
   37POPC   C2K 7919   2.007   0.679   7.071
   37POPC   C2L 7920   1.893   0.711   7.169
   37POPC   C2M 7921   1.872   0.602   7.274
   37POPC   C2N 7922   1.786   0.657   7.386
   37POPC   C2O 7923   1.755   0.551   7.492
   37POPC   C2P 7924   1.661   0.604   7.600
   38POPC   CN1 7925   3.760   3.647   5.298
   38POPC   CN2 7926   3.624   3.492   5.424
   38POPC   CN3 7927   3.653   3.476   5.173
   38POPC   NTM 7928   3.634   3.569   5.293
   38POPC    CA 7929   3.512   3.665   5.262
   38POPC    CB 7930   3.381   3.580   5.249
   38POPC    OA 7931   3.359   3.510   5.372
   38POPC     P 7932   3.223   3.438   5.396
   38POPC    OB 7933   3.265   3.300   5.384
   38POPC    OC 7934   3.119   3.490   5.307
   38POPC    OD 7935   3.193   3.470   5.547
   38POPC    CC 7936   3.235   3.584   5.617
   38POPC    CD 7937   3.368   3.570   5.688
   38POPC    OE 7938   3.351   3.483   5.797
   38POPC   C1A 7939   3.463   3.432   5.847
   38POPC    OF 7940   3.578   3.447   5.803
   38POPC   C1B 7941   3.421   3.338   5.957
   38POPC   C1C 7942   3.533   3.276   6.045
   38POPC   C1D 7943   3.579   3.380   6.148
   38POPC   C1E 7944   3.659   3.324   6.263
   38POPC   C1F 7945   3.728   3.432   6.350
   38POPC   C1G 7946   3.779   3.358   6.478
   38POPC   C1H 7947   3.816   3.463   6.586
   38POPC   C1I 7948   3.886   3.376   6.691
   38POPC   C1J 7949   3.851   3.364   6.817
   38POPC   C1K 7950   3.735   3.419   6.888
   38POPC   C1L 7951   3.736   3.423   7.045
   38POPC   C1M 7952   3.838   3.531   7.085
   38POPC   C1N 7953   3.839   3.572   7.234
   38POPC   C1O 7954   3.826   3.458   7.341
   38POPC   C1P 7955   3.845   3.499   7.480
   38POPC   C1Q 7956   3.724   3.574   7.542
   38POPC   C1R 7957   3.761   3.636   7.682
   38POPC    CE 7958   3.430   3.701   5.721
   38POPC    OG 7959   3.348   3.778   5.813
   38POPC   C2A 7960   3.387   3.787   5.937
   38POPC    OH 7961   3.495   3.749   5.983
   38POPC   C2B 7962   3.282   3.855   6.020
   38POPC   C2C 7963   3.287   3.800   6.166
   38POPC   C2D 7964   3.173   3.846   6.251
   38POPC   C2E 7965   3.175   3.797   6.404
   38POPC   C2F 7966   3.061   3.847   6.496
   38POPC   C2G 7967   3.076   3.795   6.644
   38POPC   C2H 7968   2.952   3.829   6.728
   38POPC   C2I 7969   2.972   3.774   6.873
   38POPC   C2J 7970   2.843   3.783   6.955
   38POPC   C2K 7971   2.871   3.706   7.083
   38POPC   C2L 7972   2.755   3.719   7.182
   38POPC   C2M 7973   2.751   3.604   7.284
   38POPC   C2N 7974   2.659   3.642   7.398
   38POPC   C2O 7975   2.644   3.530   7.500
   38POPC   C2P 7976   2.545   3.565   7.610
   39POPC   CN1 7977   3.067   5.845   5.265
   39POPC   CN2 7978   3.198   5.993   5.403
   39POPC   CN3 7979   3.174   6.025   5.154
   39POPC   NTM 7980   3.191   5.924   5.267
   39POPC    CA 7981   3.315   5.832   5.233
   39POPC    CB 7982   3.446   5.919   5.227
   39POPC    OA 7983   3.465   5.982   5.355
   39POPC     P 7984   3.599   6.055   5.386
   39POPC    OB 7985   3.555   6.193   5.382
   39POPC    OC 7986   3.705   6.010   5.296
   39POPC    OD 7987   3.627   6.013   5.535
   39POPC    CC 7988   3.586   5.894   5.597
   39POPC    CD 7989   3.451   5.901   5.666
   39POPC    OE 7990   3.465   5.982   5.781
   39POPC   C1A 7991   3.351   6.028   5.832
   39POPC    OF 7992   3.237   6.015   5.785
   39POPC   C1B 7993   3.391   6.116   5.949
   39POPC   C1C 7994   3.275   6.171   6.038
   39POPC   C1D 7995   3.230   6.059   6.134
   39POPC   C1E 7996   3.146   6.106   6.251
   39POPC   C1F 7997   3.078   5.992   6.329
   39POPC   C1G 7998   3.023   6.057   6.461
   39POPC   C1H 7999   2.987   5.945   6.561
   39POPC   C1I 8000   2.913   6.024   6.670
   39POPC   C1J 8001   2.946   6.028   6.797
   39POPC   C1K 8002   3.062   5.971   6.867
   39POPC   C1L 8003   3.058   5.957   7.024
   39POPC   C1M 8004   2.957   5.845   7.054
   39POPC   C1N 8005   2.954   5.794   7.200
   39POPC   C1O 8006   2.964   5.901   7.315
   39POPC   C1P 8007   2.943   5.851   7.450
   39POPC   C1Q 8008   3.064   5.774   7.509
   39POPC   C1R 8009   3.025   5.703   7.645
   39POPC    CE 8010   3.391   5.768   5.690
   39POPC    OG 8011   3.472   5.687   5.778
   39POPC   C2A 8012   3.431   5.669   5.901
   39POPC    OH 8013   3.322   5.703   5.947
   39POPC   C2B 8014   3.536   5.597   5.981
   39POPC   C2C 8015   3.527   5.642   6.129
   39POPC   C2D 8016   3.641   5.593   6.214
   39POPC   C2E 8017   3.635   5.632   6.369
   39POPC   C2F 8018   3.748   5.578   6.460
   39POPC   C2G 8019   3.730   5.620   6.611
   39POPC   C2H 8020   3.853   5.582   6.694
   39POPC   C2I 8021   3.830   5.627   6.842
   39POPC   C2J 8022   3.958   5.615   6.926
   39POPC   C2K 8023   3.926   5.683   7.058
   39POPC   C2L 8024   4.041   5.666   7.159
   39POPC   C2M 8025   4.042   5.774   7.267
   39POPC   C2N 8026   4.132   5.730   7.380
   39POPC   C2O 8027   4.144   5.836   7.490
   39POPC   C2P 8028   4.242   5.795   7.599
   40POPC   CN1 8029   2.371   4.203   5.307
   40POPC   CN2 8030   2.152   4.210   5.410
   40POPC   CN3 8031   2.185   4.204   5.159
   40POPC   NTM 8032   2.236   4.260   5.292
   40POPC    CA 8033   2.244   4.418   5.279
   40POPC    CB 8034   2.101   4.477   5.255
   40POPC    OA 8035   2.017   4.440   5.366
   40POPC     P 8036   1.877   4.506   5.381
   40POPC    OB 8037   1.792   4.394   5.346
   40POPC    OC 8038   1.868   4.629   5.304
   40POPC    OD 8039   1.868   4.532   5.536
   40POPC    CC 8040   1.975   4.557   5.622
   40POPC    CD 8041   2.034   4.433   5.687
   40POPC    OE 8042   1.941   4.385   5.782
   40POPC   C1A 8043   1.961   4.260   5.821
   40POPC    OF 8044   2.044   4.180   5.777
   40POPC   C1B 8045   1.847   4.228   5.915
   40POPC   C1C 8046   1.853   4.091   5.990
   40POPC   C1D 8047   1.952   4.103   6.108
   40POPC   C1E 8048   1.940   3.993   6.211
   40POPC   C1F 8049   2.057   3.991   6.312
   40POPC   C1G 8050   2.013   3.893   6.426
   40POPC   C1H 8051   2.106   3.912   6.548
   40POPC   C1I 8052   2.065   3.793   6.637
   40POPC   C1J 8053   2.020   3.802   6.760
   40POPC   C1K 8054   1.988   3.919   6.841
   40POPC   C1L 8055   1.973   3.904   6.997
   40POPC   C1M 8056   2.115   3.879   7.051
   40POPC   C1N 8057   2.131   3.886   7.205
   40POPC   C1O 8058   2.019   3.820   7.293
   40POPC   C1P 8059   2.047   3.813   7.436
   40POPC   C1Q 8060   2.029   3.947   7.511
   40POPC   C1R 8061   2.084   3.937   7.659
   40POPC    CE 8062   2.171   4.456   5.740
   40POPC    OG 8063   2.174   4.556   5.844
   40POPC   C2A 8064   2.190   4.516   5.967
   40POPC    OH 8065   2.217   4.402   6.004
   40POPC   C2B 8066   2.173   4.632   6.062
   40POPC   C2C 8067   2.115   4.580   6.197
   40POPC   C2D 8068   2.074   4.690   6.291
   40POPC   C2E 8069   2.019   4.643   6.433
   40POPC   C2F 8070   1.981   4.754   6.535
   40POPC   C2G 8071   1.931   4.696   6.672
   40POPC   C2H 8072   1.875   4.807   6.762
   40POPC   C2I 8073   1.827   4.744   6.897
   40POPC   C2J 8074   1.748   4.845   6.982
   40POPC   C2K 8075   1.688   4.763   7.095
   40POPC   C2L 8076   1.618   4.854   7.198
   40POPC   C2M 8077   1.512   4.780   7.280
   40POPC   C2N 8078   1.475   4.864   7.400
   40POPC   C2O 8079   1.364   4.801   7.484
   40POPC   C2P 8080   1.321   4.889   7.600
   41POPC   CN1 8081   2.266   5.697   5.224
   41POPC   CN2 8082   2.131   5.559   5.368
   41POPC   CN3 8083   2.144   5.523   5.118
   41POPC   NTM 8084   2.137   5.625   5.231
   41POPC    CA 8085   2.018   5.725   5.200
   41POPC    CB 8086   1.882   5.646   5.201
   41POPC    OA 8087   1.864   5.586   5.330
   41POPC     P 8088   1.727   5.523   5.366
   41POPC    OB 8089   1.761   5.382   5.363
   41POPC    OC 8090   1.621   5.573   5.280
   41POPC    OD 8091   1.707   5.568   5.516
   41POPC    CC 8092   1.758   5.684   5.575
   41POPC    CD 8093   1.895   5.669   5.639
   41POPC    OE 8094   1.880   5.591   5.755
   41POPC   C1A 8095   1.992   5.538   5.803
   41POPC    OF 8096   2.105   5.543   5.751
   41POPC   C1B 8097   1.952   5.454   5.922
   41POPC   C1C 8098   2.066   5.393   6.008
   41POPC   C1D 8099   2.123   5.503   6.100
   41POPC   C1E 8100   2.207   5.451   6.215
   41POPC   C1F 8101   2.286   5.561   6.289
   41POPC   C1G 8102   2.341   5.495   6.419
   41POPC   C1H 8103   2.388   5.605   6.516
   41POPC   C1I 8104   2.461   5.523   6.624
   41POPC   C1J 8105   2.432   5.522   6.752
   41POPC   C1K 8106   2.324   5.588   6.825
   41POPC   C1L 8107   2.334   5.603   6.982
   41POPC   C1M 8108   2.443   5.708   7.007
   41POPC   C1N 8109   2.454   5.760   7.152
   41POPC   C1O 8110   2.442   5.656   7.268
   41POPC   C1P 8111   2.471   5.706   7.402
   41POPC   C1Q 8112   2.358   5.791   7.465
   41POPC   C1R 8113   2.406   5.860   7.598
   41POPC    CE 8114   1.964   5.799   5.659
   41POPC    OG 8115   1.891   5.885   5.749
   41POPC   C2A 8116   1.938   5.902   5.870
   41POPC    OH 8117   2.046   5.862   5.912
   41POPC   C2B 8118   1.841   5.981   5.952
   41POPC   C2C 8119   1.852   5.937   6.101
   41POPC   C2D 8120   1.745   5.994   6.189
   41POPC   C2E 8121   1.754   5.957   6.345
   41POPC   C2F 8122   1.648   6.019   6.439
   41POPC   C2G 8123   1.669   5.977   6.589
   41POPC   C2H 8124   1.552   6.024   6.677
   41POPC   C2I 8125   1.578   5.979   6.825
   41POPC   C2J 8126   1.454   6.001   6.913
   41POPC   C2K 8127   1.486   5.931   7.045
   41POPC   C2L 8128   1.377   5.958   7.149
   41POPC   C2M 8129   1.373   5.851   7.259
   41POPC   C2N 8130   1.290   5.902   7.374
   41POPC   C2O 8131   1.276   5.798   7.486
   41POPC   C2P 8132   1.185   5.846   7.598
   42POPC   CN1 8133   0.640   2.608   5.286
   42POPC   CN2 8134   0.705   2.795   5.424
   42POPC   CN3 8135   0.664   2.817   5.175
   42POPC   NTM 8136   0.723   2.730   5.287
   42POPC    CA 8137   0.873   2.695   5.249
   42POPC    CB 8138   0.957   2.827   5.243
   42POPC    OA 8139   0.953   2.891   5.371
   42POPC     P 8140   1.048   3.011   5.401
   42POPC    OB 8141   0.953   3.120   5.400
   42POPC    OC 8142   1.161   3.012   5.309
   42POPC    OD 8143   1.093   2.982   5.549
   42POPC    CC 8144   1.104   2.856   5.610
   42POPC    CD 8145   0.978   2.809   5.681
   42POPC    OE 8146   0.962   2.888   5.797
   42POPC   C1A 8147   0.840   2.885   5.851
   42POPC    OF 8148   0.740   2.828   5.805
   42POPC   C1B 8149   0.844   2.980   5.968
   42POPC   C1C 8150   0.718   2.984   6.060
   42POPC   C1D 8151   0.723   2.863   6.155
   42POPC   C1E 8152   0.630   2.873   6.274
   42POPC   C1F 8153   0.613   2.740   6.352
   42POPC   C1G 8154   0.541   2.777   6.485
   42POPC   C1H 8155   0.553   2.659   6.584
   42POPC   C1I 8156   0.457   2.702   6.696
   42POPC   C1J 8157   0.488   2.718   6.822
   42POPC   C1K 8158   0.618   2.710   6.889
   42POPC   C1L 8159   0.624   2.695   7.046
   42POPC   C1M 8160   0.576   2.552   7.076
   42POPC   C1N 8161   0.596   2.504   7.222
   42POPC   C1O 8162   0.566   2.604   7.337
   42POPC   C1P 8163   0.569   2.549   7.472
   42POPC   C1Q 8164   0.711   2.526   7.528
   42POPC   C1R 8165   0.707   2.445   7.663
   42POPC    CE 8166   0.976   2.663   5.704
   42POPC    OG 8167   1.085   2.620   5.790
   42POPC   C2A 8168   1.057   2.586   5.913
   42POPC    OH 8169   0.944   2.574   5.961
   42POPC   C2B 8170   1.183   2.561   5.990
   42POPC   C2C 8171   1.160   2.598   6.140
   42POPC   C2D 8172   1.286   2.598   6.222
   42POPC   C2E 8173   1.268   2.630   6.377
   42POPC   C2F 8174   1.396   2.625   6.466
   42POPC   C2G 8175   1.365   2.655   6.617
   42POPC   C2H 8176   1.495   2.668   6.698
   42POPC   C2I 8177   1.459   2.699   6.847
   42POPC   C2J 8178   1.583   2.738   6.929
   42POPC   C2K 8179   1.530   2.787   7.062
   42POPC   C2L 8180   1.645   2.816   7.161
   42POPC   C2M 8181   1.605   2.915   7.271
   42POPC   C2N 8182   1.707   2.910   7.381
   42POPC   C2O 8183   1.678   3.011   7.493
   42POPC   C2P 8184   1.787   3.011   7.600
   43POPC   CN1 8185   1.929   3.312   5.304
   43POPC   CN2 8186   1.724   3.284   5.430
   43POPC   CN3 8187   1.736   3.251   5.179
   43POPC   NTM 8188   1.783   3.335   5.299
   43POPC    CA 8189   1.753   3.487   5.267
   43POPC    CB 8190   1.598   3.508   5.253
   43POPC    OA 8191   1.535   3.470   5.376
   43POPC     P 8192   1.384   3.503   5.400
   43POPC    OB 8193   1.327   3.371   5.389
   43POPC    OC 8194   1.340   3.609   5.310
   43POPC    OD 8195   1.383   3.548   5.550
   43POPC    CC 8196   1.488   3.608   5.621
   43POPC    CD 8197   1.581   3.511   5.692
   43POPC    OE 8198   1.510   3.457   5.802
   43POPC   C1A 8199   1.563   3.346   5.852
   43POPC    OF 8200   1.659   3.282   5.809
   43POPC   C1B 8201   1.468   3.302   5.962
   43POPC   C1C 8202   1.513   3.182   6.051
   43POPC   C1D 8203   1.616   3.233   6.154
   43POPC   C1E 8204   1.640   3.138   6.270
   43POPC   C1F 8205   1.763   3.176   6.357
   43POPC   C1G 8206   1.753   3.088   6.485
   43POPC   C1H 8207   1.849   3.144   6.593
   43POPC   C1I 8208   1.845   3.033   6.699
   43POPC   C1J 8209   1.811   3.048   6.824
   43POPC   C1K 8210   1.758   3.165   6.895
   43POPC   C1L 8211   1.761   3.168   7.052
   43POPC   C1M 8212   1.909   3.185   7.092
   43POPC   C1N 8213   1.936   3.216   7.241
   43POPC   C1O 8214   1.852   3.139   7.348
   43POPC   C1P 8215   1.893   3.159   7.487
   43POPC   C1Q 8216   1.849   3.295   7.548
   43POPC   C1R 8217   1.917   3.318   7.688
   43POPC    CE 8218   1.712   3.571   5.726
   43POPC    OG 8219   1.700   3.682   5.816
   43POPC   C2A 8220   1.735   3.665   5.941
   43POPC    OH 8221   1.792   3.566   5.987
   43POPC   C2B 8222   1.700   3.786   6.022
   43POPC   C2C 8223   1.668   3.742   6.168
   43POPC   C2D 8224   1.610   3.851   6.253
   43POPC   C2E 8225   1.580   3.814   6.406
   43POPC   C2F 8226   1.526   3.926   6.497
   43POPC   C2G 8227   1.503   3.878   6.645
   43POPC   C2H 8228   1.431   3.985   6.728
   43POPC   C2I 8229   1.410   3.932   6.874
   43POPC   C2J 8230   1.318   4.023   6.955
   43POPC   C2K 8231   1.289   3.947   7.084
   43POPC   C2L 8232   1.208   4.033   7.182
   43POPC   C2M 8233   1.130   3.949   7.284
   43POPC   C2N 8234   1.085   4.038   7.397
   43POPC   C2O 8235   1.000   3.964   7.500
   43POPC   C2P 8236   0.948   4.056   7.610
   44POPC   CN1 8237   6.124   3.112   5.241
   44POPC   CN2 8238   5.952   3.220   5.373
   44POPC   CN3 8239   5.938   3.199   5.121
   44POPC   NTM 8240   6.029   3.226   5.241
   44POPC    CA 8241   6.106   3.361   5.215
   44POPC    CB 8242   6.003   3.480   5.207
   44POPC    OA 8243   5.931   3.487   5.332
   44POPC     P 8244   5.840   3.609   5.361
   44POPC    OB 8245   5.709   3.548   5.348
   44POPC    OC 8246   5.876   3.723   5.277
   44POPC    OD 8247   5.870   3.638   5.513
   44POPC    CC 8248   5.989   3.611   5.582
   44POPC    CD 8249   5.995   3.474   5.647
   44POPC    OE 8250   5.907   3.474   5.757
   44POPC   C1A 8251   5.874   3.353   5.802
   44POPC    OF 8252   5.904   3.244   5.754
   44POPC   C1B 8253   5.774   3.378   5.914
   44POPC   C1C 8254   5.730   3.254   5.998
   44POPC   C1D 8255   5.841   3.220   6.099
   44POPC   C1E 8256   5.798   3.128   6.211
   44POPC   C1F 8257   5.916   3.072   6.294
   44POPC   C1G 8258   5.851   3.006   6.420
   44POPC   C1H 8259   5.961   2.981   6.526
   44POPC   C1I 8260   5.886   2.895   6.629
   44POPC   C1J 8261   5.870   2.923   6.756
   44POPC   C1K 8262   5.908   3.042   6.832
   44POPC   C1L 8263   5.914   3.036   6.989
   44POPC   C1M 8264   6.036   2.950   7.024
   44POPC   C1N 8265   6.078   2.949   7.173
   44POPC   C1O 8266   5.964   2.941   7.281
   44POPC   C1P 8267   6.009   2.923   7.418
   44POPC   C1Q 8268   6.066   3.051   7.485
   44POPC   C1R 8269   6.133   3.017   7.624
   44POPC    CE 8270   6.134   3.431   5.677
   44POPC    OG 8271   6.198   3.519   5.772
   44POPC   C2A 8272   6.214   3.477   5.894
   44POPC    OH 8273   6.192   3.363   5.936
   44POPC   C2B 8274   6.267   3.587   5.981
   44POPC   C2C 8275   6.215   3.568   6.126
   44POPC   C2D 8276   6.244   3.685   6.216
   44POPC   C2E 8277   6.198   3.670   6.369
   44POPC   C2F 8278   6.231   3.786   6.465
   44POPC   C2G 8279   6.183   3.758   6.613
   44POPC   C2H 8280   6.200   3.882   6.701
   44POPC   C2I 8281   6.150   3.849   6.845
   44POPC   C2J 8282   6.141   3.975   6.933
   44POPC   C2K 8283   6.070   3.931   7.060
   44POPC   C2L 8284   6.067   4.044   7.164
   44POPC   C2M 8285   5.953   4.028   7.265
   44POPC   C2N 8286   5.978   4.119   7.383
   44POPC   C2O 8287   5.866   4.114   7.486
   44POPC   C2P 8288   5.887   4.213   7.600
   45POPC   CN1 8289   3.828   0.541   5.299
   45POPC   CN2 8290   3.668   0.687   5.406
   45POPC   CN3 8291   3.683   0.661   5.154
   45POPC   NTM 8292   3.761   0.672   5.286
   45POPC    CA 8293   3.869   0.786   5.270
   45POPC    CB 8294   3.797   0.924   5.248
   45POPC    OA 8295   3.712   0.951   5.361
   45POPC     P 8296   3.647   1.091   5.377
   45POPC    OB 8297   3.510   1.060   5.346
   45POPC    OC 8298   3.718   1.191   5.298
   45POPC    OD 8299   3.661   1.117   5.532
   45POPC    CC 8300   3.762   1.067   5.616
   45POPC    CD 8301   3.729   0.934   5.682
   45POPC    OE 8302   3.629   0.957   5.779
   45POPC   C1A 8303   3.564   0.849   5.820
   45POPC    OF 8304   3.575   0.734   5.776
   45POPC   C1B 8305   3.458   0.898   5.917
   45POPC   C1C 8306   3.377   0.790   5.993
   45POPC   C1D 8307   3.463   0.735   6.109
   45POPC   C1E 8308   3.386   0.659   6.214
   45POPC   C1F 8309   3.476   0.581   6.313
   45POPC   C1G 8310   3.382   0.535   6.429
   45POPC   C1H 8311   3.468   0.490   6.549
   45POPC   C1I 8312   3.363   0.426   6.641
   45POPC   C1J 8313   3.337   0.461   6.765
   45POPC   C1K 8314   3.390   0.572   6.844
   45POPC   C1L 8315   3.372   0.570   7.001
   45POPC   C1M 8316   3.467   0.460   7.053
   45POPC   C1N 8317   3.487   0.454   7.206
   45POPC   C1O 8318   3.361   0.476   7.297
   45POPC   C1P 8319   3.382   0.452   7.440
   45POPC   C1Q 8320   3.456   0.567   7.513
   45POPC   C1R 8321   3.495   0.524   7.660
   45POPC    CE 8322   3.849   0.863   5.732
   45POPC    OG 8323   3.918   0.938   5.834
   45POPC   C2A 8324   3.908   0.897   5.957
   45POPC    OH 8325   3.855   0.793   5.996
   45POPC   C2B 8326   3.972   0.996   6.050
   45POPC   C2C 8327   3.898   0.994   6.187
   45POPC   C2D 8328   3.939   1.105   6.280
   45POPC   C2E 8329   3.871   1.105   6.424
   45POPC   C2F 8330   3.916   1.214   6.524
   45POPC   C2G 8331   3.843   1.202   6.664
   45POPC   C2H 8332   3.875   1.322   6.753
   45POPC   C2I 8333   3.800   1.306   6.890
   45POPC   C2J 8334   3.807   1.433   6.975
   45POPC   C2K 8335   3.712   1.410   7.090
   45POPC   C2L 8336   3.720   1.525   7.193
   45POPC   C2M 8337   3.593   1.537   7.278
   45POPC   C2N 8338   3.622   1.625   7.397
   45POPC   C2O 8339   3.498   1.648   7.484
   45POPC   C2P 8340   3.526   1.743   7.600
   46POPC   CN1 8341   5.446   4.563   5.278
   46POPC   CN2 8342   5.277   4.689   5.398
   46POPC   CN3 8343   5.286   4.678   5.145
   46POPC   NTM 8344   5.367   4.688   5.274
   46POPC    CA 8345   5.463   4.813   5.262
   46POPC    CB 8346   5.378   4.944   5.249
   46POPC    OA 8347   5.295   4.957   5.366
   46POPC     P 8348   5.219   5.090   5.392
   46POPC    OB 8349   5.083   5.048   5.364
   46POPC    OC 8350   5.277   5.200   5.317
   46POPC    OD 8351   5.236   5.109   5.547
   46POPC    CC 8352   5.343   5.064   5.626
   46POPC    CD 8353   5.325   4.926   5.685
   46POPC    OE 8354   5.227   4.934   5.786
   46POPC   C1A 8355   5.174   4.818   5.823
   46POPC    OF 8356   5.194   4.707   5.772
   46POPC   C1B 8357   5.068   4.852   5.926
   46POPC   C1C 8358   4.999   4.733   5.999
   46POPC   C1D 8359   5.095   4.681   6.109
   46POPC   C1E 8360   5.029   4.592   6.212
   46POPC   C1F 8361   5.129   4.518   6.303
   46POPC   C1G 8362   5.044   4.457   6.420
   46POPC   C1H 8363   5.139   4.415   6.534
   46POPC   C1I 8364   5.043   4.336   6.625
   46POPC   C1J 8365   5.018   4.362   6.752
   46POPC   C1K 8366   5.064   4.473   6.836
   46POPC   C1L 8367   5.052   4.461   6.992
   46POPC   C1M 8368   5.158   4.358   7.035
   46POPC   C1N 8369   5.184   4.346   7.187
   46POPC   C1O 8370   5.061   4.351   7.283
   46POPC   C1P 8371   5.088   4.322   7.423
   46POPC   C1Q 8372   5.154   4.439   7.501
   46POPC   C1R 8373   5.203   4.393   7.644
   46POPC    CE 8374   5.453   4.863   5.727
   46POPC    OG 8375   5.519   4.939   5.831
   46POPC   C2A 8376   5.516   4.891   5.952
   46POPC    OH 8377   5.476   4.780   5.986
   46POPC   C2B 8378   5.575   4.991   6.048
   46POPC   C2C 8379   5.506   4.975   6.187
   46POPC   C2D 8380   5.541   5.084   6.285
   46POPC   C2E 8381   5.478   5.070   6.431
   46POPC   C2F 8382   5.516   5.177   6.536
   46POPC   C2G 8383   5.450   5.152   6.676
   46POPC   C2H 8384   5.474   5.269   6.771
   46POPC   C2I 8385   5.406   5.239   6.909
   46POPC   C2J 8386   5.405   5.362   7.000
   46POPC   C2K 8387   5.316   5.324   7.118
   46POPC   C2L 8388   5.317   5.433   7.226
   46POPC   C2M 8389   5.193   5.429   7.315
   46POPC   C2N 8390   5.218   5.513   7.439
   46POPC   C2O 8391   5.096   5.519   7.531
   46POPC   C2P 8392   5.119   5.611   7.650
   47POPC   CN1 8393   5.284   3.663   5.341
   47POPC   CN2 8394   5.181   3.857   5.441
   47POPC   CN3 8395   5.187   3.820   5.191
   47POPC   NTM 8396   5.264   3.808   5.323
   47POPC    CA 8397   5.403   3.881   5.304
   47POPC    CB 8398   5.380   4.033   5.277
   47POPC    OA 8399   5.310   4.090   5.389
   47POPC     P 8400   5.295   4.245   5.400
   47POPC    OB 8401   5.154   4.259   5.369
   47POPC    OC 8402   5.394   4.313   5.318
   47POPC    OD 8403   5.317   4.269   5.554
   47POPC    CC 8404   5.395   4.192   5.640
   47POPC    CD 8405   5.321   4.080   5.710
   47POPC    OE 8406   5.234   4.137   5.806
   47POPC   C1A 8407   5.137   4.057   5.849
   47POPC    OF 8408   5.110   3.944   5.809
   47POPC   C1B 8409   5.054   4.142   5.944
   47POPC   C1C 8410   4.942   4.069   6.023
   47POPC   C1D 8411   5.006   3.993   6.141
   47POPC   C1E 8412   4.908   3.949   6.248
   47POPC   C1F 8413   4.968   3.850   6.350
   47POPC   C1G 8414   4.865   3.841   6.467
   47POPC   C1H 8415   4.932   3.774   6.589
   47POPC   C1I 8416   4.811   3.751   6.682
   47POPC   C1J 8417   4.799   3.796   6.804
   47POPC   C1K 8418   4.885   3.886   6.881
   47POPC   C1L 8419   4.869   3.895   7.037
   47POPC   C1M 8420   4.922   3.762   7.093
   47POPC   C1N 8421   4.940   3.756   7.247
   47POPC   C1O 8422   4.828   3.820   7.336
   47POPC   C1P 8423   4.840   3.796   7.479
   47POPC   C1Q 8424   4.948   3.882   7.550
   47POPC   C1R 8425   4.972   3.833   7.698
   47POPC    CE 8426   5.411   3.974   5.763
   47POPC    OG 8427   5.501   4.025   5.863
   47POPC   C2A 8428   5.478   3.995   5.988
   47POPC    OH 8429   5.395   3.914   6.029
   47POPC   C2B 8430   5.572   4.070   6.078
   47POPC   C2C 8431   5.502   4.097   6.214
   47POPC   C2D 8432   5.578   4.190   6.304
   47POPC   C2E 8433   5.513   4.218   6.448
   47POPC   C2F 8434   5.592   4.310   6.545
   47POPC   C2G 8435   5.520   4.327   6.684
   47POPC   C2H 8436   5.590   4.433   6.770
   47POPC   C2I 8437   5.514   4.446   6.906
   47POPC   C2J 8438   5.563   4.567   6.987
   47POPC   C2K 8439   5.466   4.580   7.103
   47POPC   C2L 8440   5.511   4.689   7.201
   47POPC   C2M 8441   5.396   4.745   7.285
   47POPC   C2N 8442   5.452   4.822   7.402
   47POPC   C2O 8443   5.343   4.887   7.487
   47POPC   C2P 8444   5.401   4.972   7.600
   48POPC   CN1 8445   4.380   5.880   5.244
   48POPC   CN2 8446   4.551   5.986   5.377
   48POPC   CN3 8447   4.556   5.985   5.124
   48POPC   NTM 8448   4.525   5.905   5.251
   48POPC    CA 8449   4.604   5.768   5.243
   48POPC    CB 8450   4.759   5.796   5.243
   48POPC    OA 8451   4.793   5.866   5.363
   48POPC     P 8452   4.943   5.885   5.401
   48POPC    OB 8453   4.958   6.027   5.375
   48POPC    OC 8454   5.027   5.789   5.331
   48POPC    OD 8455   4.942   5.861   5.556
   48POPC    CC 8456   4.853   5.778   5.628
   48POPC    CD 8457   4.728   5.848   5.678
   48POPC    OE 8458   4.766   5.934   5.783
   48POPC   C1A 8459   4.677   6.028   5.814
   48POPC    OF 8460   4.571   6.053   5.755
   48POPC   C1B 8461   4.741   6.112   5.923
   48POPC   C1C 8462   4.652   6.220   5.990
   48POPC   C1D 8463   4.560   6.152   6.092
   48POPC   C1E 8464   4.495   6.246   6.192
   48POPC   C1F 8465   4.382   6.181   6.275
   48POPC   C1G 8466   4.350   6.282   6.390
   48POPC   C1H 8467   4.265   6.211   6.498
   48POPC   C1I 8468   4.223   6.329   6.587
   48POPC   C1J 8469   4.246   6.340   6.715
   48POPC   C1K 8470   4.325   6.255   6.805
   48POPC   C1L 8471   4.306   6.268   6.961
   48POPC   C1M 8472   4.167   6.211   6.992
   48POPC   C1N 8473   4.135   6.189   7.142
   48POPC   C1O 8474   4.180   6.301   7.243
   48POPC   C1P 8475   4.132   6.285   7.380
   48POPC   C1Q 8476   4.208   6.179   7.462
   48POPC   C1R 8477   4.136   6.151   7.600
   48POPC    CE 8478   4.619   5.754   5.711
   48POPC    OG 8479   4.655   5.663   5.817
   48POPC   C2A 8480   4.603   5.683   5.935
   48POPC    OH 8481   4.514   5.763   5.963
   48POPC   C2B 8482   4.665   5.590   6.035
   48POPC   C2C 8483   4.666   5.658   6.175
   48POPC   C2D 8484   4.745   5.583   6.279
   48POPC   C2E 8485   4.745   5.645   6.426
   48POPC   C2F 8486   4.822   5.568   6.536
   48POPC   C2G 8487   4.812   5.637   6.677
   48POPC   C2H 8488   4.905   5.569   6.779
   48POPC   C2I 8489   4.892   5.642   6.916
   48POPC   C2J 8490   4.999   5.595   7.016
   48POPC   C2K 8491   4.989   5.691   7.134
   48POPC   C2L 8492   5.081   5.647   7.249
   48POPC   C2M 8493   5.118   5.762   7.342
   48POPC   C2N 8494   5.176   5.706   7.470
   48POPC   C2O 8495   5.222   5.815   7.567
   48POPC   C2P 8496   5.288   5.757   7.691
   49POPC   CN1 8497   4.156   2.927   5.290
   49POPC   CN2 8498   4.203   2.720   5.404
   49POPC   CN3 8499   4.196   2.738   5.152
   49POPC   NTM 8500   4.132   2.781   5.284
   49POPC    CA 8501   3.977   2.751   5.276
   49POPC    CB 8502   3.954   2.597   5.262
   49POPC    OA 8503   4.011   2.531   5.376
   49POPC     P 8504   3.982   2.380   5.400
   49POPC    OB 8505   4.110   2.323   5.366
   49POPC    OC 8506   3.862   2.338   5.328
   49POPC    OD 8507   3.961   2.374   5.556
   49POPC    CC 8508   3.913   2.478   5.638
   49POPC    CD 8509   4.021   2.568   5.695
   49POPC    OE 8510   4.092   2.495   5.793
   49POPC   C1A 8511   4.210   2.546   5.826
   49POPC    OF 8512   4.266   2.644   5.775
   49POPC   C1B 8513   4.270   2.449   5.925
   49POPC   C1C 8514   4.403   2.492   5.995
   49POPC   C1D 8515   4.370   2.592   6.107
   49POPC   C1E 8516   4.481   2.613   6.207
   49POPC   C1F 8517   4.458   2.733   6.302
   49POPC   C1G 8518   4.566   2.720   6.414
   49POPC   C1H 8519   4.528   2.813   6.532
   49POPC   C1I 8520   4.655   2.807   6.619
   49POPC   C1J 8521   4.660   2.769   6.744
   49POPC   C1K 8522   4.555   2.714   6.831
   49POPC   C1L 8523   4.577   2.713   6.987
   49POPC   C1M 8524   4.568   2.860   7.033
   49POPC   C1N 8525   4.561   2.882   7.186
   49POPC   C1O 8526   4.654   2.796   7.277
   49POPC   C1P 8527   4.657   2.833   7.418
   49POPC   C1Q 8528   4.532   2.787   7.498
   49POPC   C1R 8529   4.532   2.852   7.643
   49POPC    CE 8530   3.967   2.699   5.741
   49POPC    OG 8531   3.872   2.684   5.848
   49POPC   C2A 8532   3.909   2.716   5.969
   49POPC    OH 8533   4.014   2.772   6.001
   49POPC   C2B 8534   3.803   2.678   6.068
   49POPC   C2C 8535   3.870   2.642   6.204
   49POPC   C2D 8536   3.775   2.582   6.304
   49POPC   C2E 8537   3.837   2.548   6.448
   49POPC   C2F 8538   3.740   2.490   6.554
   49POPC   C2G 8539   3.811   2.464   6.692
   49POPC   C2H 8540   3.719   2.389   6.789
   49POPC   C2I 8541   3.795   2.365   6.924
   49POPC   C2J 8542   3.717   2.270   7.016
   49POPC   C2K 8543   3.813   2.237   7.130
   49POPC   C2L 8544   3.744   2.155   7.239
   49POPC   C2M 8545   3.843   2.074   7.324
   49POPC   C2N 8546   3.773   2.025   7.449
   49POPC   C2O 8547   3.863   1.938   7.536
   49POPC   C2P 8548   3.790   1.882   7.657
   50POPC   CN1 8549   6.240   5.918   5.291
   50POPC   CN2 8550   6.028   5.880   5.401
   50POPC   CN3 8551   6.051   5.895   5.149
   50POPC   NTM 8552   6.096   5.951   5.284
   50POPC    CA 8553   6.076   6.108   5.281
   50POPC    CB 8554   5.923   6.141   5.266
   50POPC    OA 8555   5.852   6.084   5.377
   50POPC     P 8556   5.703   6.122   5.400
   50POPC    OB 8557   5.638   5.999   5.361
   50POPC    OC 8558   5.669   6.246   5.331
   50POPC    OD 8559   5.696   6.138   5.556
   50POPC    CC 8560   5.801   6.177   5.641
   50POPC    CD 8561   5.884   6.062   5.696
   50POPC    OE 8562   5.805   5.993   5.790
   50POPC   C1A 8563   5.848   5.871   5.821
   50POPC    OF 8564   5.943   5.810   5.769
   50POPC   C1B 8565   5.746   5.813   5.916
   50POPC   C1C 8566   5.780   5.676   5.982
   50POPC   C1D 8567   5.880   5.699   6.097
   50POPC   C1E 8568   5.893   5.583   6.193
   50POPC   C1F 8569   6.012   5.596   6.290
   50POPC   C1G 8570   5.991   5.485   6.399
   50POPC   C1H 8571   6.085   5.514   6.519
   50POPC   C1I 8572   6.069   5.385   6.601
   50POPC   C1J 8573   6.030   5.378   6.726
   50POPC   C1K 8574   5.980   5.483   6.815
   50POPC   C1L 8575   5.975   5.456   6.971
   50POPC   C1M 8576   6.121   5.455   7.018
   50POPC   C1N 8577   6.142   5.456   7.172
   50POPC   C1O 8578   6.049   5.365   7.259
   50POPC   C1P 8579   6.083   5.355   7.400
   50POPC   C1Q 8580   6.044   5.479   7.484
   50POPC   C1R 8581   6.106   5.471   7.629
   50POPC    CE 8582   6.017   6.106   5.746
   50POPC    OG 8583   6.006   6.199   5.855
   50POPC   C2A 8584   6.034   6.155   5.976
   50POPC    OH 8585   6.083   6.046   6.004
   50POPC   C2B 8586   6.001   6.260   6.077
   50POPC   C2C 8587   5.959   6.192   6.211
   50POPC   C2D 8588   5.903   6.287   6.313
   50POPC   C2E 8589   5.864   6.223   6.454
   50POPC   C2F 8590   5.811   6.319   6.563
   50POPC   C2G 8591   5.778   6.245   6.698
   50POPC   C2H 8592   5.707   6.339   6.797
   50POPC   C2I 8593   5.676   6.260   6.929
   50POPC   C2J 8594   5.585   6.340   7.023
   50POPC   C2K 8595   5.545   6.243   7.133
   50POPC   C2L 8596   5.465   6.314   7.243
   50POPC   C2M 8597   5.377   6.217   7.323
   50POPC   C2N 8598   5.331   6.286   7.450
   50POPC   C2O 8599   5.237   6.198   7.533
   50POPC   C2P 8600   5.184   6.271   7.656
   51POPC   CN1 8601   0.880   3.870   5.317
   51POPC   CN2 8602   0.768   4.064   5.408
   51POPC   CN3 8603   0.813   4.035   5.161
   51POPC   NTM 8604   0.868   4.016   5.302
   51POPC    CA 8605   1.010   4.084   5.310
   51POPC    CB 8606   0.997   4.238   5.285
   51POPC    OA 8607   0.910   4.293   5.386
   51POPC     P 8608   0.899   4.448   5.401
   51POPC    OB 8609   0.766   4.469   5.348
   51POPC    OC 8610   1.013   4.516   5.339
   51POPC    OD 8611   0.897   4.467   5.557
   51POPC    CC 8612   0.957   4.383   5.652
   51POPC    CD 8613   0.869   4.272   5.704
   51POPC    OE 8614   0.770   4.329   5.787
   51POPC   C1A 8615   0.665   4.251   5.811
   51POPC    OF 8616   0.641   4.140   5.762
   51POPC   C1B 8617   0.570   4.335   5.894
   51POPC   C1C 8618   0.444   4.264   5.951
   51POPC   C1D 8619   0.486   4.181   6.075
   51POPC   C1E 8620   0.371   4.138   6.163
   51POPC   C1F 8621   0.410   4.033   6.269
   51POPC   C1G 8622   0.289   4.023   6.367
   51POPC   C1H 8623   0.333   3.950   6.496
   51POPC   C1I 8624   0.198   3.928   6.567
   51POPC   C1J 8625   0.167   3.970   6.687
   51POPC   C1K 8626   0.243   4.054   6.780
   51POPC   C1L 8627   0.201   4.057   6.933
   51POPC   C1M 8628   0.240   3.921   6.991
   51POPC   C1N 8629   0.233   3.908   7.145
   51POPC   C1O 8630   0.111   3.973   7.218
   51POPC   C1P 8631   0.098   3.944   7.360
   51POPC   C1Q 8632   0.196   4.023   7.450
   51POPC   C1R 8633   0.193   3.969   7.598
   51POPC    CE 8634   0.946   4.161   5.767
   51POPC    OG 8635   1.020   4.206   5.882
   51POPC   C2A 8636   0.977   4.171   6.001
   51POPC    OH 8637   0.885   4.093   6.024
   51POPC   C2B 8638   1.056   4.240   6.107
   51POPC   C2C 8639   0.966   4.265   6.232
   51POPC   C2D 8640   1.029   4.352   6.336
   51POPC   C2E 8641   0.943   4.377   6.469
   51POPC   C2F 8642   1.008   4.462   6.581
   51POPC   C2G 8643   0.915   4.477   6.707
   51POPC   C2H 8644   0.973   4.577   6.807
   51POPC   C2I 8645   0.876   4.589   6.930
   51POPC   C2J 8646   0.915   4.705   7.022
   51POPC   C2K 8647   0.800   4.718   7.121
   51POPC   C2L 8648   0.832   4.821   7.230
   51POPC   C2M 8649   0.706   4.878   7.296
   51POPC   C2N 8650   0.746   4.949   7.424
   51POPC   C2O 8651   0.626   5.015   7.493
   51POPC   C2P 8652   0.667   5.094   7.617
   52POPC   CN1 8653   1.074   2.277   5.254
   52POPC   CN2 8654   1.235   2.140   5.370
   52POPC   CN3 8655   1.217   2.144   5.118
   52POPC   NTM 8656   1.141   2.145   5.251
   52POPC    CA 8657   1.033   2.030   5.247
   52POPC    CB 8658   1.104   1.891   5.235
   52POPC    OA 8659   1.190   1.874   5.349
   52POPC     P 8660   1.255   1.735   5.377
   52POPC    OB 8661   1.393   1.763   5.341
   52POPC    OC 8662   1.183   1.629   5.307
   52POPC    OD 8663   1.243   1.722   5.533
   52POPC    CC 8664   1.144   1.780   5.614
   52POPC    CD 8665   1.178   1.918   5.668
   52POPC    OE 8666   1.279   1.903   5.765
   52POPC   C1A 8667   1.345   2.014   5.795
   52POPC    OF 8668   1.333   2.125   5.742
   52POPC   C1B 8669   1.452   1.973   5.895
   52POPC   C1C 8670   1.534   2.088   5.961
   52POPC   C1D 8671   1.450   2.152   6.072
   52POPC   C1E 8672   1.528   2.237   6.170
   52POPC   C1F 8673   1.439   2.323   6.263
   52POPC   C1G 8674   1.535   2.378   6.373
   52POPC   C1H 8675   1.450   2.434   6.490
   52POPC   C1I 8676   1.557   2.505   6.575
   52POPC   C1J 8677   1.585   2.481   6.700
   52POPC   C1K 8678   1.533   2.378   6.790
   52POPC   C1L 8679   1.552   2.393   6.946
   52POPC   C1M 8680   1.459   2.507   6.989
   52POPC   C1N 8681   1.441   2.526   7.142
   52POPC   C1O 8682   1.567   2.512   7.233
   52POPC   C1P 8683   1.549   2.548   7.373
   52POPC   C1Q 8684   1.476   2.440   7.457
   52POPC   C1R 8685   1.438   2.495   7.600
   52POPC    CE 8686   1.059   1.993   5.713
   52POPC    OG 8687   0.991   1.928   5.822
   52POPC   C2A 8688   1.003   1.978   5.941
   52POPC    OH 8689   1.056   2.086   5.970
   52POPC   C2B 8690   0.940   1.888   6.043
   52POPC   C2C 8691   1.016   1.901   6.178
   52POPC   C2D 8692   0.975   1.800   6.281
   52POPC   C2E 8693   1.046   1.812   6.424
   52POPC   C2F 8694   1.002   1.711   6.534
   52POPC   C2G 8695   1.076   1.735   6.670
   52POPC   C2H 8696   1.046   1.623   6.770
   52POPC   C2I 8697   1.122   1.651   6.904
   52POPC   C2J 8698   1.116   1.531   6.999
   52POPC   C2K 8699   1.213   1.564   7.112
   52POPC   C2L 8700   1.207   1.459   7.223
   52POPC   C2M 8701   1.334   1.454   7.307
   52POPC   C2N 8702   1.307   1.377   7.435
   52POPC   C2O 8703   1.432   1.361   7.521
   52POPC   C2P 8704   1.406   1.276   7.645
   53POPC   CN1 8705   6.310   3.639   5.300
   53POPC   CN2 8706   6.109   3.727   5.401
   53POPC   CN3 8707   6.149   3.730   5.151
   53POPC   NTM 8708   6.211   3.748   5.290
   53POPC    CA 8709   6.285   3.889   5.293
   53POPC    CB 8710   6.179   4.003   5.274
   53POPC    OA 8711   6.083   3.996   5.380
   53POPC     P 8712   5.981   4.112   5.401
   53POPC    OB 8713   5.860   4.048   5.354
   53POPC    OC 8714   6.028   4.234   5.336
   53POPC    OD 8715   5.976   4.126   5.557
   53POPC    CC 8716   6.080   4.096   5.647
   53POPC    CD 8717   6.080   3.953   5.699
   53POPC    OE 8718   5.970   3.940   5.788
   53POPC   C1A 8719   5.935   3.814   5.814
   53POPC    OF 8720   5.980   3.711   5.763
   53POPC   C1B 8721   5.813   3.824   5.903
   53POPC   C1C 8722   5.759   3.691   5.964
   53POPC   C1D 8723   5.848   3.651   6.083
   53POPC   C1E 8724   5.787   3.546   6.174
   53POPC   C1F 8725   5.887   3.486   6.275
   53POPC   C1G 8726   5.801   3.406   6.378
   53POPC   C1H 8727   5.888   3.374   6.503
   53POPC   C1I 8728   5.797   3.275   6.578
   53POPC   C1J 8729   5.754   3.290   6.701
   53POPC   C1K 8730   5.768   3.403   6.794
   53POPC   C1L 8731   5.741   3.381   6.947
   53POPC   C1M 8732   5.857   3.295   7.000
   53POPC   C1N 8733   5.867   3.281   7.154
   53POPC   C1O 8734   5.734   3.259   7.233
   53POPC   C1P 8735   5.749   3.228   7.375
   53POPC   C1Q 8736   5.784   3.351   7.464
   53POPC   C1R 8737   5.823   3.306   7.610
   53POPC    CE 8738   6.211   3.912   5.755
   53POPC    OG 8739   6.249   3.992   5.869
   53POPC   C2A 8740   6.241   3.939   5.988
   53POPC    OH 8741   6.217   3.820   6.013
   53POPC   C2B 8742   6.269   4.042   6.093
   53POPC   C2C 8743   6.188   4.007   6.222
   53POPC   C2D 8744   6.191   4.115   6.326
   53POPC   C2E 8745   6.115   4.082   6.463
   53POPC   C2F 8746   6.121   4.189   6.574
   53POPC   C2G 8747   6.044   4.145   6.705
   53POPC   C2H 8748   6.035   4.260   6.806
   53POPC   C2I 8749   5.958   4.212   6.933
   53POPC   C2J 8750   5.924   4.327   7.027
   53POPC   C2K 8751   5.830   4.269   7.131
   53POPC   C2L 8752   5.799   4.371   7.242
   53POPC   C2M 8753   5.668   4.340   7.315
   53POPC   C2N 8754   5.662   4.420   7.443
   53POPC   C2O 8755   5.531   4.401   7.519
   53POPC   C2P 8756   5.523   4.489   7.643
   54POPC   CN1 8757   3.085   4.905   5.234
   54POPC   CN2 8758   2.958   4.740   5.355
   54POPC   CN3 8759   2.967   4.747   5.102
   54POPC   NTM 8760   2.959   4.829   5.231
   54POPC    CA 8761   2.836   4.928   5.219
   54POPC    CB 8762   2.703   4.845   5.208
   54POPC    OA 8763   2.689   4.764   5.326
   54POPC     P 8764   2.555   4.690   5.353
   54POPC    OB 8765   2.594   4.553   5.325
   54POPC    OC 8766   2.446   4.751   5.278
   54POPC    OD 8767   2.537   4.709   5.508
   54POPC    CC 8768   2.585   4.815   5.586
   54POPC    CD 8769   2.724   4.795   5.644
   54POPC    OE 8770   2.714   4.698   5.746
   54POPC   C1A 8771   2.829   4.642   5.782
   54POPC    OF 8772   2.940   4.660   5.731
   54POPC   C1B 8773   2.794   4.537   5.886
   54POPC   C1C 8774   2.912   4.467   5.959
   54POPC   C1D 8775   2.967   4.562   6.067
   54POPC   C1E 8776   3.056   4.495   6.170
   54POPC   C1F 8777   3.132   4.594   6.260
   54POPC   C1G 8778   3.192   4.508   6.377
   54POPC   C1H 8779   3.238   4.603   6.491
   54POPC   C1I 8780   3.315   4.506   6.582
   54POPC   C1J 8781   3.290   4.483   6.708
   54POPC   C1K 8782   3.180   4.531   6.793
   54POPC   C1L 8783   3.193   4.520   6.950
   54POPC   C1M 8784   3.299   4.624   6.991
   54POPC   C1N 8785   3.312   4.651   7.142
   54POPC   C1O 8786   3.305   4.528   7.240
   54POPC   C1P 8787   3.336   4.556   7.379
   54POPC   C1Q 8788   3.221   4.625   7.457
   54POPC   C1R 8789   3.269   4.673   7.599
   54POPC    CE 8790   2.789   4.922   5.685
   54POPC    OG 8791   2.716   4.989   5.789
   54POPC   C2A 8792   2.764   4.987   5.910
   54POPC    OH 8793   2.875   4.944   5.944
   54POPC   C2B 8794   2.667   5.048   6.006
   54POPC   C2C 8795   2.682   4.980   6.146
   54POPC   C2D 8796   2.575   5.017   6.244
   54POPC   C2E 8797   2.589   4.955   6.390
   54POPC   C2F 8798   2.483   4.996   6.495
   54POPC   C2G 8799   2.508   4.931   6.636
   54POPC   C2H 8800   2.392   4.957   6.732
   54POPC   C2I 8801   2.422   4.890   6.870
   54POPC   C2J 8802   2.300   4.892   6.962
   54POPC   C2K 8803   2.337   4.802   7.080
   54POPC   C2L 8804   2.228   4.807   7.189
   54POPC   C2M 8805   2.231   4.683   7.279
   54POPC   C2N 8806   2.148   4.711   7.403
   54POPC   C2O 8807   2.140   4.589   7.496
   54POPC   C2P 8808   2.050   4.615   7.616
   55POPC   CN1 8809   1.315   5.766   5.258
   55POPC   CN2 8810   1.379   5.947   5.405
   55POPC   CN3 8811   1.346   5.978   5.156
   55POPC   NTM 8812   1.400   5.887   5.266
   55POPC    CA 8813   1.550   5.851   5.231
   55POPC    CB 8814   1.637   5.981   5.232
   55POPC    OA 8815   1.630   6.041   5.363
   55POPC     P 8816   1.726   6.158   5.400
   55POPC    OB 8817   1.633   6.268   5.400
   55POPC    OC 8818   1.842   6.160   5.311
   55POPC    OD 8819   1.766   6.123   5.548
   55POPC    CC 8820   1.773   5.995   5.605
   55POPC    CD 8821   1.645   5.947   5.670
   55POPC    OE 8822   1.626   6.022   5.788
   55POPC   C1A 8823   1.503   6.019   5.838
   55POPC    OF 8824   1.403   5.966   5.788
   55POPC   C1B 8825   1.505   6.110   5.959
   55POPC   C1C 8826   1.376   6.113   6.048
   55POPC   C1D 8827   1.376   5.988   6.138
   55POPC   C1E 8828   1.280   5.996   6.254
   55POPC   C1F 8829   1.259   5.861   6.326
   55POPC   C1G 8830   1.183   5.894   6.459
   55POPC   C1H 8831   1.191   5.772   6.554
   55POPC   C1I 8832   1.092   5.813   6.664
   55POPC   C1J 8833   1.119   5.823   6.792
   55POPC   C1K 8834   1.247   5.811   6.862
   55POPC   C1L 8835   1.248   5.790   7.019
   55POPC   C1M 8836   1.197   5.647   7.043
   55POPC   C1N 8837   1.212   5.593   7.187
   55POPC   C1O 8838   1.180   5.690   7.305
   55POPC   C1P 8839   1.178   5.630   7.438
   55POPC   C1Q 8840   1.319   5.603   7.497
   55POPC   C1R 8841   1.309   5.517   7.629
   55POPC    CE 8842   1.640   5.800   5.688
   55POPC    OG 8843   1.745   5.752   5.774
   55POPC   C2A 8844   1.713   5.715   5.896
   55POPC    OH 8845   1.599   5.703   5.940
   55POPC   C2B 8846   1.836   5.685   5.975
   55POPC   C2C 8847   1.810   5.717   6.126
   55POPC   C2D 8848   1.933   5.711   6.211
   55POPC   C2E 8849   1.911   5.738   6.367
   55POPC   C2F 8850   2.036   5.727   6.459
   55POPC   C2G 8851   2.001   5.753   6.610
   55POPC   C2H 8852   2.129   5.761   6.696
   55POPC   C2I 8853   2.089   5.787   6.845
   55POPC   C2J 8854   2.211   5.821   6.931
   55POPC   C2K 8855   2.155   5.867   7.065
   55POPC   C2L 8856   2.267   5.890   7.168
   55POPC   C2M 8857   2.225   5.985   7.280
   55POPC   C2N 8858   2.324   5.974   7.393
   55POPC   C2O 8859   2.294   6.072   7.507
   55POPC   C2P 8860   2.399   6.066   7.617
   56POPC   CN1 8861   4.865   4.967   5.339
   56POPC   CN2 8862   4.747   5.151   5.442
   56POPC   CN3 8863   4.752   5.115   5.191
   56POPC   NTM 8864   4.832   5.110   5.321
   56POPC    CA 8865   4.964   5.195   5.301
   56POPC    CB 8866   4.926   5.345   5.275
   56POPC    OA 8867   4.852   5.395   5.387
   56POPC     P 8868   4.823   5.547   5.399
   56POPC    OB 8869   4.681   5.549   5.371
   56POPC    OC 8870   4.915   5.625   5.316
   56POPC    OD 8871   4.846   5.574   5.553
   56POPC    CC 8872   4.932   5.504   5.638
   56POPC    CD 8873   4.870   5.385   5.708
   56POPC    OE 8874   4.780   5.434   5.806
   56POPC   C1A 8875   4.692   5.346   5.851
   56POPC    OF 8876   4.674   5.230   5.810
   56POPC   C1B 8877   4.603   5.422   5.947
   56POPC   C1C 8878   4.499   5.338   6.028
   56POPC   C1D 8879   4.572   5.269   6.144
   56POPC   C1E 8880   4.480   5.216   6.253
   56POPC   C1F 8881   4.551   5.122   6.354
   56POPC   C1G 8882   4.451   5.104   6.472
   56POPC   C1H 8883   4.526   5.043   6.593
   56POPC   C1I 8884   4.409   5.009   6.688
   56POPC   C1J 8885   4.395   5.053   6.810
   56POPC   C1K 8886   4.474   5.150   6.886
   56POPC   C1L 8887   4.459   5.157   7.043
   56POPC   C1M 8888   4.525   5.029   7.097
   56POPC   C1N 8889   4.546   5.024   7.250
   56POPC   C1O 8890   4.431   5.078   7.342
   56POPC   C1P 8891   4.447   5.055   7.485
   56POPC   C1Q 8892   4.548   5.150   7.554
   56POPC   C1R 8893   4.579   5.104   7.701
   56POPC    CE 8894   4.970   5.288   5.760
   56POPC    OG 8895   5.057   5.348   5.858
   56POPC   C2A 8896   5.039   5.315   5.984
   56POPC    OH 8897   4.964   5.227   6.026
   56POPC   C2B 8898   5.127   5.398   6.072
   56POPC   C2C 8899   5.057   5.418   6.210
   56POPC   C2D 8900   5.125   5.518   6.299
   56POPC   C2E 8901   5.061   5.539   6.444
   56POPC   C2F 8902   5.132   5.638   6.539
   56POPC   C2G 8903   5.062   5.648   6.680
   56POPC   C2H 8904   5.123   5.760   6.765
   56POPC   C2I 8905   5.048   5.766   6.902
   56POPC   C2J 8906   5.087   5.891   6.983
   56POPC   C2K 8907   4.991   5.895   7.100
   56POPC   C2L 8908   5.028   6.007   7.199
   56POPC   C2M 8909   4.909   6.052   7.284
   56POPC   C2N 8910   4.960   6.134   7.400
   56POPC   C2O 8911   4.846   6.188   7.488
   56POPC   C2P 8912   4.898   6.278   7.600
   57POPC   CN1 8913   5.752   1.793   5.237
   57POPC   CN2 8914   5.832   1.607   5.370
   57POPC   CN3 8915   5.833   1.605   5.116
   57POPC   NTM 8916   5.756   1.646   5.243
   57POPC    CA 8917   5.610   1.587   5.232
   57POPC    CB 8918   5.616   1.430   5.230
   57POPC    OA 8919   5.679   1.384   5.350
   57POPC     P 8920   5.676   1.233   5.386
   57POPC    OB 8921   5.815   1.199   5.362
   57POPC    OC 8922   5.571   1.164   5.313
   57POPC    OD 8923   5.650   1.235   5.541
   57POPC    CC 8924   5.580   1.334   5.613
   57POPC    CD 8925   5.666   1.447   5.666
   57POPC    OE 8926   5.744   1.396   5.771
   57POPC   C1A 8927   5.849   1.471   5.805
   57POPC    OF 8928   5.889   1.573   5.748
   57POPC   C1B 8929   5.921   1.394   5.913
   57POPC   C1C 8930   6.040   1.466   5.984
   57POPC   C1D 8931   5.984   1.566   6.087
   57POPC   C1E 8932   6.084   1.615   6.188
   57POPC   C1F 8933   6.035   1.735   6.272
   57POPC   C1G 8934   6.137   1.752   6.389
   57POPC   C1H 8935   6.077   1.844   6.497
   57POPC   C1I 8936   6.198   1.868   6.588
   57POPC   C1J 8937   6.205   1.842   6.716
   57POPC   C1K 8938   6.108   1.775   6.804
   57POPC   C1L 8939   6.122   1.789   6.960
   57POPC   C1M 8940   6.083   1.934   6.993
   57POPC   C1N 8941   6.064   1.967   7.143
   57POPC   C1O 8942   6.167   1.906   7.244
   57POPC   C1P 8943   6.156   1.954   7.382
   57POPC   C1Q 8944   6.039   1.892   7.462
   57POPC   C1R 8945   6.019   1.966   7.600
   57POPC    CE 8946   5.587   1.568   5.699
   57POPC    OG 8947   5.491   1.543   5.803
   57POPC   C2A 8948   5.515   1.591   5.923
   57POPC    OH 8949   5.607   1.668   5.953
   57POPC   C2B 8950   5.413   1.541   6.021
   57POPC   C2C 8951   5.479   1.529   6.161
   57POPC   C2D 8952   5.392   1.459   6.263
   57POPC   C2E 8953   5.451   1.449   6.411
   57POPC   C2F 8954   5.362   1.382   6.518
   57POPC   C2G 8955   5.430   1.380   6.660
   57POPC   C2H 8956   5.348   1.297   6.760
   57POPC   C2I 8957   5.420   1.297   6.899
   57POPC   C2J 8958   5.358   1.197   6.996
   57POPC   C2K 8959   5.452   1.191   7.115
   57POPC   C2L 8960   5.394   1.105   7.228
   57POPC   C2M 8961   5.502   1.051   7.323
   57POPC   C2N 8962   5.436   1.000   7.449
   57POPC   C2O 8963   5.536   0.938   7.546
   57POPC   C2P 8964   5.468   0.878   7.669
   58POPC   CN1 8965   4.578   0.980   5.230
   58POPC   CN2 8966   4.769   0.933   5.370
   58POPC   CN3 8967   4.786   0.948   5.118
   58POPC   NTM 8968   4.702   0.900   5.237
   58POPC    CA 8969   4.670   0.747   5.215
   58POPC    CB 8970   4.804   0.664   5.215
   58POPC    OA 8971   4.870   0.683   5.341
   58POPC     P 8972   4.992   0.595   5.379
   58POPC    OB 8973   5.099   0.691   5.366
   58POPC    OC 8974   4.995   0.473   5.299
   58POPC    OD 8975   4.967   0.564   5.531
   58POPC    CC 8976   4.842   0.557   5.595
   58POPC    CD 8977   4.793   0.688   5.654
   58POPC    OE 8978   4.873   0.718   5.766
   58POPC   C1A 8979   4.868   0.845   5.807
   58POPC    OF 8980   4.809   0.938   5.753
   58POPC   C1B 8981   4.966   0.855   5.922
   58POPC   C1C 8982   4.968   0.990   6.001
   58POPC   C1D 8983   4.848   0.993   6.098
   58POPC   C1E 8984   4.858   1.097   6.206
   58POPC   C1F 8985   4.726   1.119   6.284
   58POPC   C1G 8986   4.764   1.206   6.409
   58POPC   C1H 8987   4.647   1.201   6.511
   58POPC   C1I 8988   4.690   1.309   6.611
   58POPC   C1J 8989   4.708   1.291   6.740
   58POPC   C1K 8990   4.705   1.169   6.820
   58POPC   C1L 8991   4.692   1.179   6.977
   58POPC   C1M 8992   4.549   1.226   7.005
   58POPC   C1N 8993   4.503   1.220   7.152
   58POPC   C1O 8994   4.605   1.265   7.262
   58POPC   C1P 8995   4.552   1.274   7.398
   58POPC   C1Q 8996   4.533   1.138   7.469
   58POPC   C1R 8997   4.453   1.154   7.604
   58POPC    CE 8998   4.647   0.689   5.679
   58POPC    OG 8999   4.608   0.590   5.776
   58POPC   C2A 9000   4.576   0.629   5.896
   58POPC    OH 9001   4.562   0.746   5.933
   58POPC   C2B 9002   4.555   0.511   5.986
   58POPC   C2C 9003   4.594   0.550   6.132
   58POPC   C2D 9004   4.598   0.433   6.227
   58POPC   C2E 9005   4.632   0.467   6.379
   58POPC   C2F 9006   4.631   0.350   6.480
   58POPC   C2G 9007   4.663   0.396   6.627
   58POPC   C2H 9008   4.681   0.276   6.721
   58POPC   C2I 9009   4.713   0.328   6.865
   58POPC   C2J 9010   4.756   0.214   6.958
   58POPC   C2K 9011   4.806   0.282   7.084
   58POPC   C2L 9012   4.839   0.178   7.194
   58POPC   C2M 9013   4.939   0.231   7.297
   58POPC   C2N 9014   4.937   0.141   7.418
   58POPC   C2O 9015   5.040   0.183   7.524
   58POPC   C2P 9016   5.044   0.086   7.641
   59POPC   CN1 9017   0.919   0.171   5.332
   59POPC   CN2 9018   1.059   0.336   5.439
   59POPC   CN3 9019   1.027   0.326   5.188
   59POPC   NTM 9020   1.045   0.245   5.317
   59POPC    CA 9021   1.166   0.145   5.295
   59POPC    CB 9022   1.298   0.225   5.271
   59POPC    OA 9023   1.323   0.308   5.386
   59POPC     P 9024   1.460   0.380   5.400
   59POPC    OB 9025   1.420   0.517   5.374
   59POPC    OC 9026   1.562   0.317   5.316
   59POPC    OD 9027   1.492   0.364   5.553
   59POPC    CC 9028   1.449   0.259   5.636
   59POPC    CD 9029   1.317   0.282   5.706
   59POPC    OE 9030   1.337   0.381   5.805
   59POPC   C1A 9031   1.226   0.438   5.851
   59POPC    OF 9032   1.111   0.421   5.810
   59POPC   C1B 9033   1.272   0.544   5.949
   59POPC   C1C 9034   1.161   0.617   6.031
   59POPC   C1D 9035   1.116   0.525   6.146
   59POPC   C1E 9036   1.038   0.595   6.255
   59POPC   C1F 9037   0.968   0.498   6.354
   59POPC   C1G 9038   0.920   0.586   6.474
   59POPC   C1H 9039   0.884   0.494   6.592
   59POPC   C1I 9040   0.816   0.593   6.688
   59POPC   C1J 9041   0.853   0.618   6.812
   59POPC   C1K 9042   0.969   0.569   6.887
   59POPC   C1L 9043   0.970   0.582   7.044
   59POPC   C1M 9044   0.867   0.481   7.096
   59POPC   C1N 9045   0.868   0.456   7.249
   59POPC   C1O 9046   0.884   0.581   7.343
   59POPC   C1P 9047   0.866   0.555   7.485
   59POPC   C1Q 9048   0.987   0.486   7.554
   59POPC   C1R 9049   0.951   0.440   7.700
   59POPC    CE 9050   1.254   0.157   5.755
   59POPC    OG 9051   1.335   0.090   5.853
   59POPC   C2A 9052   1.298   0.094   5.978
   59POPC    OH 9053   1.191   0.139   6.021
   59POPC   C2B 9054   1.403   0.034   6.066
   59POPC   C2C 9055   1.401   0.104   6.205
   59POPC   C2D 9056   1.516   0.066   6.294
   59POPC   C2E 9057   1.516   0.131   6.440
   59POPC   C2F 9058   1.631   0.090   6.536
   59POPC   C2G 9059   1.619   0.158   6.677
   59POPC   C2H 9060   1.743   0.131   6.763
   59POPC   C2I 9061   1.726   0.201   6.901
   59POPC   C2J 9062   1.856   0.199   6.983
   59POPC   C2K 9063   1.831   0.290   7.102
   59POPC   C2L 9064   1.949   0.286   7.201
   59POPC   C2M 9065   1.956   0.411   7.289
   59POPC   C2N 9066   2.049   0.384   7.405
   59POPC   C2O 9067   2.067   0.507   7.495
   59POPC   C2P 9068   2.167   0.481   7.607
   60POPC   CN1 9069   4.335   4.962   5.255
   60POPC   CN2 9070   4.418   4.772   5.378
   60POPC   CN3 9071   4.404   4.775   5.126
   60POPC   NTM 9072   4.336   4.814   5.257
   60POPC    CA 9073   4.188   4.759   5.254
   60POPC    CB 9074   4.190   4.602   5.248
   60POPC    OA 9075   4.259   4.553   5.364
   60POPC     P 9076   4.255   4.400   5.397
   60POPC    OB 9077   4.391   4.363   5.363
   60POPC    OC 9078   4.144   4.335   5.330
   60POPC    OD 9079   4.238   4.400   5.553
   60POPC    CC 9080   4.175   4.498   5.631
   60POPC    CD 9081   4.267   4.608   5.681
   60POPC    OE 9082   4.350   4.554   5.781
   60POPC   C1A 9083   4.458   4.625   5.809
   60POPC    OF 9084   4.497   4.728   5.752
   60POPC   C1B 9085   4.535   4.545   5.911
   60POPC   C1C 9086   4.660   4.613   5.976
   60POPC   C1D 9087   4.612   4.712   6.084
   60POPC   C1E 9088   4.720   4.757   6.180
   60POPC   C1F 9089   4.679   4.876   6.269
   60POPC   C1G 9090   4.788   4.887   6.379
   60POPC   C1H 9091   4.737   4.979   6.493
   60POPC   C1I 9092   4.864   4.998   6.577
   60POPC   C1J 9093   4.877   4.969   6.704
   60POPC   C1K 9094   4.784   4.902   6.796
   60POPC   C1L 9095   4.808   4.913   6.951
   60POPC   C1M 9096   4.775   5.058   6.990
   60POPC   C1N 9097   4.766   5.088   7.141
   60POPC   C1O 9098   4.873   5.023   7.235
   60POPC   C1P 9099   4.872   5.068   7.373
   60POPC   C1Q 9100   4.758   5.007   7.459
   60POPC   C1R 9101   4.749   5.078   7.600
   60POPC    CE 9102   4.193   4.731   5.721
   60POPC    OG 9103   4.103   4.706   5.831
   60POPC   C2A 9104   4.136   4.750   5.950
   60POPC    OH 9105   4.231   4.824   5.976
   60POPC   C2B 9106   4.039   4.701   6.052
   60POPC   C2C 9107   4.112   4.684   6.189
   60POPC   C2D 9108   4.030   4.615   6.294
   60POPC   C2E 9109   4.098   4.599   6.437
   60POPC   C2F 9110   4.014   4.532   6.549
   60POPC   C2G 9111   4.090   4.525   6.687
   60POPC   C2H 9112   4.013   4.442   6.789
   60POPC   C2I 9113   4.093   4.438   6.923
   60POPC   C2J 9114   4.034   4.337   7.022
   60POPC   C2K 9115   4.135   4.327   7.135
   60POPC   C2L 9116   4.082   4.240   7.250
   60POPC   C2M 9117   4.194   4.181   7.337
   60POPC   C2N 9118   4.135   4.129   7.465
   60POPC   C2O 9119   4.239   4.062   7.555
   60POPC   C2P 9120   4.178   4.002   7.681
   61POPC   CN1 9121   1.074   0.969   5.278
   61POPC   CN2 9122   0.867   1.036   5.382
   61POPC   CN3 9123   0.901   1.040   5.131
   61POPC   NTM 9124   0.964   1.066   5.268
   61POPC    CA 9125   1.022   1.214   5.268
   61POPC    CB 9126   0.904   1.316   5.250
   61POPC    OA 9127   0.811   1.300   5.358
   61POPC     P 9128   0.698   1.405   5.379
   61POPC    OB 9129   0.583   1.327   5.336
   61POPC    OC 9130   0.730   1.530   5.312
   61POPC    OD 9131   0.695   1.421   5.535
   61POPC    CC 9132   0.803   1.403   5.623
   61POPC    CD 9133   0.819   1.263   5.677
   61POPC    OE 9134   0.714   1.239   5.768
   61POPC   C1A 9135   0.692   1.111   5.797
   61POPC    OF 9136   0.748   1.012   5.747
   61POPC   C1B 9137   0.572   1.109   5.889
   61POPC   C1C 9138   0.534   0.971   5.953
   61POPC   C1D 9139   0.629   0.943   6.070
   61POPC   C1E 9140   0.582   0.834   6.165
   61POPC   C1F 9141   0.691   0.787   6.264
   61POPC   C1G 9142   0.616   0.700   6.370
   61POPC   C1H 9143   0.708   0.679   6.493
   61POPC   C1I 9144   0.630   0.573   6.572
   61POPC   C1J 9145   0.588   0.585   6.696
   61POPC   C1K 9146   0.592   0.700   6.786
   61POPC   C1L 9147   0.570   0.678   6.941
   61POPC   C1M 9148   0.696   0.606   6.992
   61POPC   C1N 9149   0.711   0.595   7.145
   61POPC   C1O 9150   0.583   0.561   7.228
   61POPC   C1P 9151   0.604   0.534   7.370
   61POPC   C1Q 9152   0.627   0.661   7.456
   61POPC   C1R 9153   0.673   0.623   7.602
   61POPC    CE 9154   0.955   1.237   5.731
   61POPC    OG 9155   0.987   1.322   5.842
   61POPC   C2A 9156   0.987   1.270   5.962
   61POPC    OH 9157   0.977   1.151   5.990
   61POPC   C2B 9158   1.006   1.377   6.065
   61POPC   C2C 9159   0.932   1.336   6.196
   61POPC   C2D 9160   0.926   1.445   6.299
   61POPC   C2E 9161   0.856   1.407   6.438
   61POPC   C2F 9162   0.853   1.516   6.548
   61POPC   C2G 9163   0.784   1.466   6.681
   61POPC   C2H 9164   0.765   1.582   6.780
   61POPC   C2I 9165   0.696   1.527   6.909
   61POPC   C2J 9166   0.651   1.640   7.003
   61POPC   C2K 9167   0.566   1.573   7.110
   61POPC   C2L 9168   0.527   1.673   7.220
   61POPC   C2M 9169   0.401   1.630   7.296
   61POPC   C2N 9170   0.390   1.711   7.423
   61POPC   C2O 9171   0.263   1.679   7.502
   61POPC   C2P 9172   0.248   1.767   7.625
   62POPC   CN1 9173   3.337   3.775   5.259
   62POPC   CN2 9174   3.189   3.655   5.408
   62POPC   CN3 9175   3.203   3.605   5.160
   62POPC   NTM 9176   3.203   3.714   5.268
   62POPC    CA 9177   3.092   3.820   5.229
   62POPC    CB 9178   2.950   3.752   5.231
   62POPC    OA 9179   2.926   3.700   5.363
   62POPC     P 9180   2.783   3.649   5.400
   62POPC    OB 9181   2.808   3.506   5.404
   62POPC    OC 9182   2.683   3.702   5.309
   62POPC    OD 9183   2.766   3.703   5.547
   62POPC    CC 9184   2.824   3.819   5.601
   62POPC    CD 9185   2.958   3.796   5.668
   62POPC    OE 9186   2.936   3.726   5.788
   62POPC   C1A 9187   3.043   3.668   5.840
   62POPC    OF 9188   3.157   3.662   5.791
   62POPC   C1B 9189   2.995   3.593   5.963
   62POPC   C1C 9190   3.103   3.528   6.054
   62POPC   C1D 9191   3.166   3.638   6.141
   62POPC   C1E 9192   3.245   3.587   6.260
   62POPC   C1F 9193   3.330   3.695   6.330
   62POPC   C1G 9194   3.378   3.631   6.464
   62POPC   C1H 9195   3.433   3.743   6.556
   62POPC   C1I 9196   3.497   3.661   6.669
   62POPC   C1J 9197   3.467   3.669   6.797
   62POPC   C1K 9198   3.362   3.746   6.865
   62POPC   C1L 9199   3.371   3.769   7.020
   62POPC   C1M 9200   3.487   3.867   7.042
   62POPC   C1N 9201   3.501   3.925   7.185
   62POPC   C1O 9202   3.479   3.829   7.306
   62POPC   C1P 9203   3.510   3.883   7.437
   62POPC   C1Q 9204   3.402   3.979   7.493
   62POPC   C1R 9205   3.453   4.052   7.624
   62POPC    CE 9206   3.036   3.922   5.683
   62POPC    OG 9207   2.970   4.018   5.766
   62POPC   C2A 9208   3.015   4.037   5.887
   62POPC    OH 9209   3.120   3.992   5.934
   62POPC   C2B 9210   2.923   4.128   5.964
   62POPC   C2C 9211   2.929   4.091   6.115
   62POPC   C2D 9212   2.825   4.161   6.198
   62POPC   C2E 9213   2.829   4.131   6.355
   62POPC   C2F 9214   2.727   4.205   6.444
   62POPC   C2G 9215   2.743   4.170   6.597
   62POPC   C2H 9216   2.628   4.230   6.680
   62POPC   C2I 9217   2.648   4.191   6.830
   62POPC   C2J 9218   2.525   4.226   6.915
   62POPC   C2K 9219   2.550   4.162   7.050
   62POPC   C2L 9220   2.441   4.201   7.152
   62POPC   C2M 9221   2.428   4.101   7.266
   62POPC   C2N 9222   2.347   4.164   7.378
   62POPC   C2O 9223   2.323   4.067   7.494
   62POPC   C2P 9224   2.235   4.128   7.602
   63POPC   CN1 9225   4.932   3.296   5.248
   63POPC   CN2 9226   5.084   3.148   5.363
   63POPC   CN3 9227   5.068   3.158   5.110
   63POPC   NTM 9228   4.991   3.161   5.243
   63POPC    CA 9229   4.877   3.052   5.236
   63POPC    CB 9230   4.941   2.909   5.222
   63POPC    OA 9231   5.025   2.885   5.336
   63POPC     P 9232   5.082   2.742   5.361
   63POPC    OB 9233   5.221   2.764   5.327
   63POPC    OC 9234   5.004   2.642   5.290
   63POPC    OD 9235   5.068   2.727   5.517
   63POPC    CC 9236   4.971   2.789   5.599
   63POPC    CD 9237   5.013   2.924   5.655
   63POPC    OE 9238   5.112   2.901   5.753
   63POPC   C1A 9239   5.183   3.009   5.786
   63POPC    OF 9240   5.178   3.121   5.734
   63POPC   C1B 9241   5.287   2.960   5.885
   63POPC   C1C 9242   5.375   3.069   5.954
   63POPC   C1D 9243   5.293   3.135   6.066
   63POPC   C1E 9244   5.376   3.214   6.166
   63POPC   C1F 9245   5.291   3.303   6.260
   63POPC   C1G 9246   5.389   3.351   6.372
   63POPC   C1H 9247   5.306   3.409   6.490
   63POPC   C1I 9248   5.416   3.473   6.576
   63POPC   C1J 9249   5.441   3.445   6.701
   63POPC   C1K 9250   5.383   3.343   6.789
   63POPC   C1L 9251   5.402   3.354   6.945
   63POPC   C1M 9252   5.315   3.473   6.990
   63POPC   C1N 9253   5.297   3.489   7.142
   63POPC   C1O 9254   5.422   3.467   7.234
   63POPC   C1P 9255   5.404   3.501   7.375
   63POPC   C1Q 9256   5.325   3.396   7.456
   63POPC   C1R 9257   5.289   3.450   7.600
   63POPC    CE 9258   4.897   3.005   5.701
   63POPC    OG 9259   4.825   2.941   5.808
   63POPC   C2A 9260   4.839   2.989   5.929
   63POPC    OH 9261   4.897   3.093   5.960
   63POPC   C2B 9262   4.770   2.900   6.029
   63POPC   C2C 9263   4.846   2.907   6.165
   63POPC   C2D 9264   4.799   2.806   6.265
   63POPC   C2E 9265   4.869   2.811   6.409
   63POPC   C2F 9266   4.819   2.711   6.516
   63POPC   C2G 9267   4.893   2.728   6.654
   63POPC   C2H 9268   4.856   2.616   6.752
   63POPC   C2I 9269   4.933   2.638   6.886
   63POPC   C2J 9270   4.919   2.517   6.979
   63POPC   C2K 9271   5.018   2.542   7.093
   63POPC   C2L 9272   5.004   2.435   7.202
   63POPC   C2M 9273   5.131   2.421   7.287
   63POPC   C2N 9274   5.099   2.343   7.412
   63POPC   C2O 9275   5.222   2.319   7.500
   63POPC   C2P 9276   5.190   2.234   7.622
   64POPC   CN1 9277   2.586   5.003   5.331
   64POPC   CN2 9278   2.577   5.216   5.444
   64POPC   CN3 9279   2.549   5.193   5.194
   64POPC   NTM 9280   2.624   5.145   5.318
   64POPC    CA 9281   2.779   5.157   5.289
   64POPC    CB 9282   2.817   5.308   5.267
   64POPC    OA 9283   2.783   5.382   5.385
   64POPC     P 9284   2.831   5.529   5.401
   64POPC    OB 9285   2.706   5.600   5.382
   64POPC    OC 9286   2.944   5.557   5.312
   64POPC    OD 9287   2.872   5.535   5.553
   64POPC    CC 9288   2.919   5.428   5.631
   64POPC    CD 9289   2.811   5.351   5.704
   64POPC    OE 9290   2.762   5.433   5.808
   64POPC   C1A 9291   2.645   5.396   5.858
   64POPC    OF 9292   2.572   5.304   5.818
   64POPC   C1B 9293   2.609   5.501   5.961
   64POPC   C1C 9294   2.482   5.474   6.049
   64POPC   C1D 9295   2.519   5.373   6.159
   64POPC   C1E 9296   2.420   5.365   6.273
   64POPC   C1F 9297   2.443   5.245   6.367
   64POPC   C1G 9298   2.353   5.272   6.493
   64POPC   C1H 9299   2.396   5.177   6.607
   64POPC   C1I 9300   2.283   5.199   6.709
   64POPC   C1J 9301   2.299   5.239   6.833
   64POPC   C1K 9302   2.419   5.283   6.904
   64POPC   C1L 9303   2.418   5.290   7.061
   64POPC   C1M 9304   2.418   5.144   7.110
   64POPC   C1N 9305   2.443   5.123   7.261
   64POPC   C1O 9306   2.372   5.221   7.361
   64POPC   C1P 9307   2.384   5.186   7.502
   64POPC   C1Q 9308   2.522   5.219   7.565
   64POPC   C1R 9309   2.535   5.157   7.710
   64POPC    CE 9310   2.856   5.216   5.747
   64POPC    OG 9311   2.966   5.222   5.840
   64POPC   C2A 9312   2.942   5.196   5.966
   64POPC    OH 9313   2.836   5.153   6.013
   64POPC   C2B 9314   3.063   5.224   6.049
   64POPC   C2C 9315   3.019   5.269   6.192
   64POPC   C2D 9316   3.132   5.320   6.276
   64POPC   C2E 9317   3.095   5.363   6.425
   64POPC   C2F 9318   3.210   5.411   6.517
   64POPC   C2G 9319   3.161   5.448   6.662
   64POPC   C2H 9320   3.273   5.513   6.744
   64POPC   C2I 9321   3.218   5.548   6.886
   64POPC   C2J 9322   3.317   5.635   6.965
   64POPC   C2K 9323   3.241   5.680   7.089
   64POPC   C2L 9324   3.333   5.757   7.186
   64POPC   C2M 9325   3.255   5.849   7.280
   64POPC   C2N 9326   3.346   5.891   7.393
   64POPC   C2O 9327   3.278   5.990   7.489
   64POPC   C2P 9328   3.372   6.039   7.598
    1POPC   CN1 9329   4.960   3.559  10.767
    1POPC   CN2 9330   4.940   3.369  10.618
    1POPC   CN3 9331   4.917   3.349  10.870
    1POPC   NTM 9332   4.992   3.415  10.754
    1POPC    CA 9333   5.147   3.391  10.777
    1POPC    CB 9334   5.178   3.237  10.771
    1POPC    OA 9335   5.139   3.187  10.642
    1POPC     P 9336   5.180   3.043  10.599
    1POPC    OB 9337   5.052   2.976  10.608
    1POPC    OC 9338   5.293   2.996  10.679
    1POPC    OD 9339   5.219   3.063  10.448
    1POPC    CC 9340   5.269   3.180  10.389
    1POPC    CD 9341   5.164   3.273  10.333
    1POPC    OE 9342   5.109   3.213  10.218
    1POPC   C1A 9343   4.993   3.264  10.178
    1POPC    OF 9344   4.925   3.350  10.235
    1POPC   C1B 9345   4.951   3.181  10.058
    1POPC   C1C 9346   4.825   3.228   9.980
    1POPC   C1D 9347   4.865   3.345   9.889
    1POPC   C1E 9348   4.764   3.377   9.780
    1POPC   C1F 9349   4.791   3.511   9.708
    1POPC   C1G 9350   4.698   3.511   9.582
    1POPC   C1H 9351   4.744   3.623   9.485
    1POPC   C1I 9352   4.628   3.625   9.384
    1POPC   C1J 9353   4.640   3.607   9.254
    1POPC   C1K 9354   4.757   3.571   9.174
    1POPC   C1L 9355   4.754   3.593   9.018
    1POPC   C1M 9356   4.759   3.745   8.996
    1POPC   C1N 9357   4.782   3.792   8.851
    1POPC   C1O 9358   4.707   3.716   8.736
    1POPC   C1P 9359   4.717   3.774   8.603
    1POPC   C1Q 9360   4.853   3.748   8.533
    1POPC   C1R 9361   4.866   3.834   8.401
    1POPC    CE 9362   5.214   3.412  10.314
    1POPC    OG 9363   5.322   3.418  10.219
    1POPC   C2A 9364   5.297   3.467  10.100
    1POPC    OH 9365   5.193   3.522  10.064
    1POPC   C2B 9366   5.416   3.449  10.011
    1POPC   C2C 9367   5.368   3.432   9.863
    1POPC   C2D 9368   5.477   3.392   9.768
    1POPC   C2E 9369   5.435   3.378   9.615
    1POPC   C2F 9370   5.547   3.343   9.514
    1POPC   C2G 9371   5.494   3.335   9.366
    1POPC   C2H 9372   5.602   3.280   9.271
    1POPC   C2I 9373   5.544   3.274   9.126
    1POPC   C2J 9374   5.637   3.198   9.030
    1POPC   C2K 9375   5.557   3.180   8.902
    1POPC   C2L 9376   5.644   3.118   8.791
    1POPC   C2M 9377   5.561   3.047   8.684
    1POPC   C2N 9378   5.648   3.022   8.563
    1POPC   C2O 9379   5.574   2.945   8.453
    1POPC   C2P 9380   5.664   2.912   8.335
    2POPC   CN1 9381   5.490   4.525  10.739
    2POPC   CN2 9382   5.435   4.324  10.618
    2POPC   CN3 9383   5.452   4.331  10.870
    2POPC   NTM 9384   5.511   4.379  10.738
    2POPC    CA 9385   5.666   4.347  10.739
    2POPC    CB 9386   5.688   4.192  10.746
    2POPC    OA 9387   5.626   4.131  10.632
    2POPC     P 9388   5.652   3.981  10.600
    2POPC    OB 9389   5.524   3.924  10.636
    2POPC    OC 9390   5.773   3.934  10.667
    2POPC    OD 9391   5.668   3.982  10.443
    2POPC    CC 9392   5.714   4.088  10.365
    2POPC    CD 9393   5.606   4.182  10.315
    2POPC    OE 9394   5.531   4.114  10.217
    2POPC   C1A 9395   5.413   4.168  10.189
    2POPC    OF 9396   5.359   4.265  10.246
    2POPC   C1B 9397   5.348   4.076  10.088
    2POPC   C1C 9398   5.214   4.124  10.025
    2POPC   C1D 9399   5.244   4.228   9.915
    2POPC   C1E 9400   5.130   4.255   9.820
    2POPC   C1F 9401   5.152   4.378   9.730
    2POPC   C1G 9402   5.040   4.372   9.621
    2POPC   C1H 9403   5.076   4.469   9.506
    2POPC   C1I 9404   4.946   4.468   9.423
    2POPC   C1J 9405   4.936   4.435   9.297
    2POPC   C1K 9406   5.037   4.383   9.204
    2POPC   C1L 9407   5.010   4.389   9.049
    2POPC   C1M 9408   5.020   4.537   9.009
    2POPC   C1N 9409   5.022   4.566   8.857
    2POPC   C1O 9410   4.925   4.484   8.766
    2POPC   C1P 9411   4.918   4.527   8.627
    2POPC   C1Q 9412   5.039   4.484   8.540
    2POPC   C1R 9413   5.036   4.554   8.398
    2POPC    CE 9414   5.660   4.314  10.272
    2POPC    OG 9415   5.752   4.302  10.162
    2POPC   C2A 9416   5.711   4.340  10.043
    2POPC    OH 9417   5.606   4.398  10.018
    2POPC   C2B 9418   5.813   4.305   9.940
    2POPC   C2C 9419   5.742   4.276   9.804
    2POPC   C2D 9420   5.832   4.219   9.699
    2POPC   C2E 9421   5.766   4.192   9.556
    2POPC   C2F 9422   5.858   4.137   9.444
    2POPC   C2G 9423   5.782   4.118   9.308
    2POPC   C2H 9424   5.870   4.046   9.204
    2POPC   C2I 9425   5.789   4.028   9.072
    2POPC   C2J 9426   5.862   3.937   8.973
    2POPC   C2K 9427   5.762   3.910   8.861
    2POPC   C2L 9428   5.827   3.831   8.746
    2POPC   C2M 9429   5.724   3.755   8.662
    2POPC   C2N 9430   5.789   3.711   8.533
    2POPC   C2O 9431   5.695   3.629   8.445
    2POPC   C2P 9432   5.764   3.577   8.319
    3POPC   CN1 9433   0.958   3.733  10.752
    3POPC   CN2 9434   1.105   3.873  10.622
    3POPC   CN3 9435   1.100   3.878  10.875
    3POPC   NTM 9436   1.018   3.868  10.747
    3POPC    CA 9437   0.904   3.978  10.752
    3POPC    CB 9438   0.969   4.121  10.755
    3POPC    OA 9439   1.048   4.137  10.636
    3POPC     P 9440   1.105   4.278  10.600
    3POPC    OB 9441   1.245   4.258  10.629
    3POPC    OC 9442   1.031   4.383  10.669
    3POPC    OD 9443   1.084   4.284  10.444
    3POPC    CC 9444   0.984   4.218  10.371
    3POPC    CD 9445   1.022   4.080  10.321
    3POPC    OE 9446   1.117   4.096  10.217
    3POPC   C1A 9447   1.186   3.987  10.188
    3POPC    OF 9448   1.183   3.878  10.246
    3POPC   C1B 9449   1.286   4.029  10.081
    3POPC   C1C 9450   1.370   3.916  10.015
    3POPC   C1D 9451   1.284   3.843   9.911
    3POPC   C1E 9452   1.361   3.758   9.813
    3POPC   C1F 9453   1.272   3.664   9.728
    3POPC   C1G 9454   1.365   3.609   9.614
    3POPC   C1H 9455   1.277   3.545   9.504
    3POPC   C1I 9456   1.383   3.475   9.417
    3POPC   C1J 9457   1.402   3.496   9.289
    3POPC   C1K 9458   1.341   3.593   9.199
    3POPC   C1L 9459   1.353   3.572   9.043
    3POPC   C1M 9460   1.263   3.452   9.009
    3POPC   C1N 9461   1.238   3.427   8.858
    3POPC   C1O 9462   1.359   3.442   8.760
    3POPC   C1P 9463   1.336   3.401   8.623
    3POPC   C1Q 9464   1.253   3.501   8.539
    3POPC   C1R 9465   1.211   3.438   8.400
    3POPC    CE 9466   0.904   3.997  10.285
    3POPC    OG 9467   0.828   4.055  10.177
    3POPC   C2A 9468   0.836   4.000  10.059
    3POPC    OH 9469   0.892   3.894  10.032
    3POPC   C2B 9470   0.763   4.083   9.958
    3POPC   C2C 9471   0.833   4.068   9.819
    3POPC   C2D 9472   0.782   4.163   9.715
    3POPC   C2E 9473   0.846   4.149   9.569
    3POPC   C2F 9474   0.791   4.243   9.458
    3POPC   C2G 9475   0.859   4.217   9.318
    3POPC   C2H 9476   0.818   4.323   9.216
    3POPC   C2I 9477   0.889   4.294   9.080
    3POPC   C2J 9478   0.872   4.409   8.980
    3POPC   C2K 9479   0.965   4.377   8.864
    3POPC   C2L 9480   0.947   4.477   8.749
    3POPC   C2M 9481   1.070   4.485   8.658
    3POPC   C2N 9482   1.032   4.555   8.530
    3POPC   C2O 9483   1.152   4.574   8.436
    3POPC   C2P 9484   1.115   4.652   8.311
    4POPC   CN1 9485   1.427   5.244  10.670
    4POPC   CN2 9486   1.408   5.030  10.562
    4POPC   CN3 9487   1.389   5.058  10.812
    4POPC   NTM 9488   1.462   5.102  10.685
    4POPC    CA 9489   1.617   5.085  10.709
    4POPC    CB 9490   1.651   4.934  10.733
    4POPC    OA 9491   1.611   4.859  10.617
    4POPC     P 9492   1.656   4.710  10.603
    4POPC    OB 9493   1.529   4.644  10.627
    4POPC    OC 9494   1.770   4.681  10.688
    4POPC    OD 9495   1.692   4.700  10.450
    4POPC    CC 9496   1.739   4.805  10.368
    4POPC    CD 9497   1.631   4.883  10.297
    4POPC    OE 9498   1.577   4.801  10.196
    4POPC   C1A 9499   1.459   4.840  10.149
    4POPC    OF 9500   1.390   4.935  10.190
    4POPC   C1B 9501   1.417   4.735  10.049
    4POPC   C1C 9502   1.288   4.764   9.965
    4POPC   C1D 9503   1.325   4.861   9.852
    4POPC   C1E 9504   1.222   4.870   9.741
    4POPC   C1F 9505   1.245   4.987   9.643
    4POPC   C1G 9506   1.151   4.961   9.522
    4POPC   C1H 9507   1.193   5.052   9.404
    4POPC   C1I 9508   1.077   5.032   9.306
    4POPC   C1J 9509   1.087   4.989   9.182
    4POPC   C1K 9510   1.204   4.940   9.109
    4POPC   C1L 9511   1.198   4.931   8.952
    4POPC   C1M 9512   1.200   5.076   8.900
    4POPC   C1N 9513   1.220   5.094   8.748
    4POPC   C1O 9514   1.145   4.996   8.652
    4POPC   C1P 9515   1.153   5.027   8.510
    4POPC   C1Q 9516   1.288   4.990   8.444
    4POPC   C1R 9517   1.298   5.049   8.298
    4POPC    CE 9518   1.678   5.016  10.250
    4POPC    OG 9519   1.785   5.005  10.154
    4POPC   C2A 9520   1.758   5.030  10.028
    4POPC    OH 9521   1.652   5.075   9.984
    4POPC   C2B 9522   1.876   4.997   9.942
    4POPC   C2C 9523   1.826   4.951   9.802
    4POPC   C2D 9524   1.935   4.895   9.715
    4POPC   C2E 9525   1.891   4.851   9.568
    4POPC   C2F 9526   2.003   4.798   9.474
    4POPC   C2G 9527   1.948   4.760   9.331
    4POPC   C2H 9528   2.055   4.690   9.247
    4POPC   C2I 9529   1.996   4.654   9.107
    4POPC   C2J 9530   2.089   4.563   9.026
    4POPC   C2K 9531   2.009   4.518   8.906
    4POPC   C2L 9532   2.095   4.437   8.808
    4POPC   C2M 9533   2.012   4.345   8.718
    4POPC   C2N 9534   2.098   4.298   8.603
    4POPC   C2O 9535   2.024   4.200   8.511
    4POPC   C2P 9536   2.114   4.147   8.400
    5POPC   CN1 9537   3.683   5.904  10.729
    5POPC   CN2 9538   3.556   5.739  10.606
    5POPC   CN3 9539   3.563   5.746  10.859
    5POPC   NTM 9540   3.643   5.762  10.729
    5POPC    CA 9541   3.770   5.669  10.739
    5POPC    CB 9542   3.726   5.519  10.747
    5POPC    OA 9543   3.650   5.486  10.630
    5POPC     P 9544   3.613   5.338  10.600
    5POPC    OB 9545   3.472   5.339  10.629
    5POPC    OC 9546   3.701   5.247  10.672
    5POPC    OD 9547   3.635   5.328  10.444
    5POPC    CC 9548   3.724   5.404  10.368
    5POPC    CD 9549   3.667   5.533  10.312
    5POPC    OE 9550   3.575   5.500  10.210
    5POPC   C1A 9551   3.491   5.598  10.177
    5POPC    OF 9552   3.480   5.708  10.231
    5POPC   C1B 9553   3.399   5.538  10.073
    5POPC   C1C 9554   3.299   5.635  10.003
    5POPC   C1D 9555   3.375   5.715   9.895
    5POPC   C1E 9556   3.286   5.784   9.794
    5POPC   C1F 9557   3.361   5.886   9.705
    5POPC   C1G 9558   3.262   5.923   9.590
    5POPC   C1H 9559   3.339   5.994   9.477
    5POPC   C1I 9560   3.225   6.045   9.388
    5POPC   C1J 9561   3.208   6.017   9.261
    5POPC   C1K 9562   3.283   5.925   9.174
    5POPC   C1L 9563   3.267   5.938   9.017
    5POPC   C1M 9564   3.339   6.068   8.978
    5POPC   C1N 9565   3.360   6.090   8.826
    5POPC   C1O 9566   3.243   6.054   8.730
    5POPC   C1P 9567   3.260   6.093   8.590
    5POPC   C1Q 9568   3.356   6.001   8.510
    5POPC   C1R 9569   3.389   6.063   8.368
    5POPC    CE 9570   3.773   5.630  10.272
    5POPC    OG 9571   3.856   5.579  10.167
    5POPC   C2A 9572   3.840   5.628  10.046
    5POPC    OH 9573   3.769   5.724  10.015
    5POPC   C2B 9574   3.923   5.551   9.948
    5POPC   C2C 9575   3.852   5.551   9.809
    5POPC   C2D 9576   3.916   5.459   9.708
    5POPC   C2E 9577   3.851   5.459   9.563
    5POPC   C2F 9578   3.917   5.369   9.455
    5POPC   C2G 9579   3.846   5.379   9.315
    5POPC   C2H 9580   3.901   5.275   9.217
    5POPC   C2I 9581   3.827   5.289   9.080
    5POPC   C2J 9582   3.860   5.174   8.985
    5POPC   C2K 9583   3.763   5.188   8.869
    5POPC   C2L 9584   3.794   5.087   8.758
    5POPC   C2M 9585   3.674   5.058   8.668
    5POPC   C2N 9586   3.720   4.988   8.542
    5POPC   C2O 9587   3.605   4.950   8.450
    5POPC   C2P 9588   3.652   4.872   8.328
    6POPC   CN1 9589   2.356   4.366  10.741
    6POPC   CN2 9590   2.523   4.231  10.629
    6POPC   CN3 9591   2.508   4.249  10.881
    6POPC   NTM 9592   2.498   4.323  10.748
    6POPC    CA 9593   2.593   4.450  10.755
    6POPC    CB 9594   2.741   4.403  10.771
    6POPC    OA 9595   2.776   4.321  10.658
    6POPC     P 9596   2.925   4.281  10.635
    6POPC    OB 9597   2.920   4.140  10.670
    6POPC    OC 9598   3.015   4.370  10.707
    6POPC    OD 9599   2.940   4.295  10.479
    6POPC    CC 9600   2.869   4.383  10.396
    6POPC    CD 9601   2.741   4.326  10.339
    6POPC    OE 9602   2.776   4.229  10.242
    6POPC   C1A 9603   2.678   4.145  10.209
    6POPC    OF 9604   2.565   4.138  10.259
    6POPC   C1B 9605   2.740   4.047  10.111
    6POPC   C1C 9606   2.643   3.946  10.042
    6POPC   C1D 9607   2.569   4.018   9.928
    6POPC   C1E 9608   2.501   3.927   9.828
    6POPC   C1F 9609   2.405   3.999   9.732
    6POPC   C1G 9610   2.369   3.896   9.621
    6POPC   C1H 9611   2.304   3.970   9.502
    6POPC   C1I 9612   2.254   3.852   9.416
    6POPC   C1J 9613   2.286   3.829   9.291
    6POPC   C1K 9614   2.382   3.898   9.204
    6POPC   C1L 9615   2.375   3.877   9.048
    6POPC   C1M 9616   2.248   3.949   9.001
    6POPC   C1N 9617   2.232   3.964   8.848
    6POPC   C1O 9618   2.269   3.842   8.758
    6POPC   C1P 9619   2.236   3.854   8.617
    6POPC   C1Q 9620   2.332   3.944   8.536
    6POPC   C1R 9621   2.275   3.972   8.391
    6POPC    CE 9622   2.647   4.431  10.291
    6POPC    OG 9623   2.704   4.509  10.183
    6POPC   C2A 9624   2.660   4.488  10.062
    6POPC    OH 9625   2.563   4.418  10.031
    6POPC   C2B 9626   2.741   4.565   9.963
    6POPC   C2C 9627   2.745   4.488   9.828
    6POPC   C2D 9628   2.841   4.546   9.728
    6POPC   C2E 9629   2.846   4.474   9.585
    6POPC   C2F 9630   2.940   4.535   9.478
    6POPC   C2G 9631   2.934   4.458   9.341
    6POPC   C2H 9632   3.042   4.507   9.244
    6POPC   C2I 9633   3.032   4.427   9.111
    6POPC   C2J 9634   3.151   4.453   9.019
    6POPC   C2K 9635   3.139   4.352   8.906
    6POPC   C2L 9636   3.245   4.377   8.797
    6POPC   C2M 9637   3.274   4.252   8.714
    6POPC   C2N 9638   3.350   4.292   8.589
    6POPC   C2O 9639   3.389   4.172   8.503
    6POPC   C2P 9640   3.472   4.212   8.382
    7POPC   CN1 9641   4.308   1.077  10.689
    7POPC   CN2 9642   4.123   1.178  10.570
    7POPC   CN3 9643   4.151   1.196  10.821
    7POPC   NTM 9644   4.163   1.105  10.698
    7POPC    CA 9645   4.083   0.972  10.727
    7POPC    CB 9646   3.931   1.005  10.746
    7POPC    OA 9647   3.882   1.067  10.626
    7POPC     P 9648   3.729   1.088  10.606
    7POPC    OB 9649   3.720   1.231  10.623
    7POPC    OC 9650   3.652   1.000  10.694
    7POPC    OD 9651   3.708   1.051  10.455
    7POPC    CC 9652   3.785   0.961  10.380
    7POPC    CD 9653   3.904   1.023  10.308
    7POPC    OE 9654   3.854   1.102  10.202
    7POPC   C1A 9655   3.940   1.190  10.152
    7POPC    OF 9656   4.054   1.215  10.194
    7POPC   C1B 9657   3.864   1.267  10.047
    7POPC   C1C 9658   3.946   1.367   9.959
    7POPC   C1D 9659   4.022   1.288   9.852
    7POPC   C1E 9660   4.075   1.372   9.737
    7POPC   C1F 9661   4.175   1.298   9.646
    7POPC   C1G 9662   4.194   1.388   9.520
    7POPC   C1H 9663   4.261   1.306   9.408
    7POPC   C1I 9664   4.294   1.416   9.305
    7POPC   C1J 9665   4.254   1.418   9.180
    7POPC   C1K 9666   4.163   1.328   9.109
    7POPC   C1L 9667   4.161   1.329   8.951
    7POPC   C1M 9668   4.293   1.265   8.906
    7POPC   C1N 9669   4.304   1.231   8.756
    7POPC   C1O 9670   4.249   1.336   8.653
    7POPC   C1P 9671   4.278   1.309   8.513
    7POPC   C1Q 9672   4.189   1.198   8.450
    7POPC   C1R 9673   4.241   1.158   8.307
    7POPC    CE 9674   4.006   0.923  10.268
    7POPC    OG 9675   3.954   0.825  10.176
    7POPC   C2A 9676   3.990   0.834  10.050
    7POPC    OH 9677   4.077   0.909  10.004
    7POPC   C2B 9678   3.913   0.736   9.967
    7POPC   C2C 9679   3.895   0.793   9.823
    7POPC   C2D 9680   3.802   0.713   9.738
    7POPC   C2E 9681   3.783   0.764   9.587
    7POPC   C2F 9682   3.691   0.680   9.495
    7POPC   C2G 9683   3.683   0.738   9.349
    7POPC   C2H 9684   3.576   0.666   9.266
    7POPC   C2I 9685   3.572   0.728   9.122
    7POPC   C2J 9686   3.452   0.677   9.042
    7POPC   C2K 9687   3.448   0.763   8.916
    7POPC   C2L 9688   3.341   0.713   8.818
    7POPC   C2M 9689   3.294   0.822   8.721
    7POPC   C2N 9690   3.218   0.758   8.607
    7POPC   C2O 9691   3.162   0.861   8.509
    7POPC   C2P 9692   3.079   0.796   8.399
    8POPC   CN1 9693   2.106   0.418  10.725
    8POPC   CN2 9694   2.084   0.611  10.582
    8POPC   CN3 9695   2.130   0.629  10.830
    8POPC   NTM 9696   2.053   0.556  10.720
    8POPC    CA 9697   1.900   0.557  10.759
    8POPC    CB 9698   1.847   0.704  10.762
    8POPC    OA 9699   1.865   0.763  10.632
    8POPC     P 9700   1.800   0.900  10.599
    8POPC    OB 9701   1.917   0.985  10.598
    8POPC    OC 9702   1.691   0.929  10.691
    8POPC    OD 9703   1.749   0.879  10.452
    8POPC    CC 9704   1.709   0.757  10.394
    8POPC    CD 9705   1.820   0.681  10.324
    8POPC    OE 9706   1.854   0.751  10.206
    8POPC   C1A 9707   1.971   0.718  10.153
    8POPC    OF 9708   2.056   0.642  10.200
    8POPC   C1B 9709   1.989   0.810  10.033
    8POPC   C1C 9710   2.112   0.783   9.941
    8POPC   C1D 9711   2.079   0.663   9.850
    8POPC   C1E 9712   2.171   0.648   9.731
    8POPC   C1F 9713   2.157   0.514   9.656
    8POPC   C1G 9714   2.235   0.530   9.522
    8POPC   C1H 9715   2.195   0.415   9.426
    8POPC   C1I 9716   2.299   0.432   9.314
    8POPC   C1J 9717   2.272   0.451   9.187
    8POPC   C1K 9718   2.143   0.472   9.120
    8POPC   C1L 9719   2.133   0.454   8.964
    8POPC   C1M 9720   2.147   0.304   8.937
    8POPC   C1N 9721   2.115   0.258   8.793
    8POPC   C1O 9722   2.168   0.346   8.674
    8POPC   C1P 9723   2.151   0.290   8.541
    8POPC   C1Q 9724   2.007   0.298   8.485
    8POPC   C1R 9725   1.992   0.215   8.352
    8POPC    CE 9726   1.788   0.537  10.305
    8POPC    OG 9727   1.673   0.518  10.221
    8POPC   C2A 9728   1.692   0.476  10.098
    8POPC    OH 9729   1.798   0.437  10.050
    8POPC   C2B 9730   1.563   0.479  10.022
    8POPC   C2C 9731   1.593   0.506   9.871
    8POPC   C2D 9732   1.470   0.532   9.789
    8POPC   C2E 9733   1.494   0.555   9.633
    8POPC   C2F 9734   1.368   0.577   9.545
    8POPC   C2G 9735   1.404   0.596   9.392
    8POPC   C2H 9736   1.281   0.637   9.311
    8POPC   C2I 9737   1.322   0.655   9.161
    8POPC   C2J 9738   1.209   0.719   9.078
    8POPC   C2K 9739   1.272   0.751   8.944
    8POPC   C2L 9740   1.166   0.803   8.844
    8POPC   C2M 9741   1.227   0.887   8.732
    8POPC   C2N 9742   1.126   0.903   8.621
    8POPC   C2O 9743   1.176   0.992   8.508
    8POPC   C2P 9744   1.071   1.014   8.400
    9POPC   CN1 9745   0.010   4.003  10.669
    9POPC   CN2 9746   0.213   4.073  10.558
    9POPC   CN3 9747   0.199   4.041  10.809
    9POPC   NTM 9748   0.128   4.091  10.683
    9POPC    CA 9749   0.081   4.240  10.710
    9POPC    CB 9750   0.207   4.332  10.732
    9POPC    OA 9751   0.290   4.326  10.615
    9POPC     P 9752   0.408   4.426  10.600
    9POPC    OB 9753   0.520   4.336  10.621
    9POPC    OC 9754   0.391   4.541  10.687
    9POPC    OD 9755   0.400   4.465  10.448
    9POPC    CC 9756   0.285   4.468  10.368
    9POPC    CD 9757   0.254   4.338  10.296
    9POPC    OE 9758   0.350   4.322  10.193
    9POPC   C1A 9759   0.359   4.199  10.144
    9POPC    OF 9760   0.301   4.097  10.185
    9POPC   C1B 9761   0.472   4.204  10.043
    9POPC   C1C 9762   0.494   4.075   9.957
    9POPC   C1D 9763   0.388   4.071   9.845
    9POPC   C1E 9764   0.420   3.975   9.732
    9POPC   C1F 9765   0.301   3.951   9.637
    9POPC   C1G 9766   0.361   3.876   9.513
    9POPC   C1H 9767   0.258   3.880   9.397
    9POPC   C1I 9768   0.322   3.782   9.297
    9POPC   C1J 9769   0.354   3.810   9.173
    9POPC   C1K 9770   0.352   3.938   9.101
    9POPC   C1L 9771   0.360   3.938   8.943
    9POPC   C1M 9772   0.225   3.883   8.894
    9POPC   C1N 9773   0.198   3.897   8.742
    9POPC   C1O 9774   0.316   3.867   8.644
    9POPC   C1P 9775   0.282   3.864   8.502
    9POPC   C1Q 9776   0.262   4.003   8.438
    9POPC   C1R 9777   0.202   3.991   8.293
    9POPC    CE 9778   0.113   4.329  10.251
    9POPC    OG 9779   0.079   4.433  10.157
    9POPC   C2A 9780   0.065   4.399  10.031
    9POPC    OH 9781   0.065   4.285   9.986
    9POPC   C2B 9782   0.047   4.522   9.947
    9POPC   C2C 9783   0.107   4.497   9.805
    9POPC   C2D 9784   0.113   4.620   9.719
    9POPC   C2E 9785   0.169   4.599   9.571
    9POPC   C2F 9786   0.172   4.723   9.478
    9POPC   C2G 9787   0.226   4.690   9.334
    9POPC   C2H 9788   0.246   4.817   9.251
    9POPC   C2I 9789   0.300   4.778   9.110
    9POPC   C2J 9790   0.345   4.902   9.030
    9POPC   C2K 9791   0.417   4.846   8.908
    9POPC   C2L 9792   0.455   4.959   8.810
    9POPC   C2M 9793   0.571   4.921   8.718
    9POPC   C2N 9794   0.577   5.020   8.604
    9POPC   C2O 9795   0.695   4.992   8.510
    9POPC   C2P 9796   0.707   5.097   8.400
   10POPC   CN1 9797   5.419   1.505  10.738
   10POPC   CN2 9798   5.382   1.299  10.618
   10POPC   CN3 9799   5.398   1.309  10.870
   10POPC   NTM 9800   5.453   1.362  10.737
   10POPC    CA 9801   5.610   1.343  10.738
   10POPC    CB 9802   5.645   1.190  10.745
   10POPC    OA 9803   5.588   1.124  10.631
   10POPC     P 9804   5.627   0.976  10.600
   10POPC    OB 9805   5.504   0.909  10.637
   10POPC    OC 9806   5.752   0.940  10.667
   10POPC    OD 9807   5.641   0.978  10.444
   10POPC    CC 9808   5.679   1.087  10.364
   10POPC    CD 9809   5.563   1.171  10.314
   10POPC    OE 9810   5.494   1.097  10.217
   10POPC   C1A 9811   5.371   1.141  10.189
   10POPC    OF 9812   5.310   1.232  10.246
   10POPC   C1B 9813   5.314   1.043  10.089
   10POPC   C1C 9814   5.175   1.079  10.026
   10POPC   C1D 9815   5.197   1.184   9.916
   10POPC   C1E 9816   5.080   1.201   9.821
   10POPC   C1F 9817   5.091   1.326   9.731
   10POPC   C1G 9818   4.980   1.309   9.622
   10POPC   C1H 9819   5.007   1.408   9.506
   10POPC   C1I 9820   4.878   1.396   9.424
   10POPC   C1J 9821   4.870   1.363   9.298
   10POPC   C1K 9822   4.975   1.319   9.205
   10POPC   C1L 9823   4.947   1.321   9.050
   10POPC   C1M 9824   4.944   1.469   9.010
   10POPC   C1N 9825   4.943   1.498   8.858
   10POPC   C1O 9826   4.853   1.408   8.767
   10POPC   C1P 9827   4.842   1.450   8.627
   10POPC   C1Q 9828   4.966   1.416   8.541
   10POPC   C1R 9829   4.956   1.486   8.399
   10POPC    CE 9830   5.605   1.307  10.271
   10POPC    OG 9831   5.697   1.303  10.160
   10POPC   C2A 9832   5.653   1.336  10.042
   10POPC    OH 9833   5.543   1.385  10.016
   10POPC   C2B 9834   5.758   1.309   9.938
   10POPC   C2C 9835   5.688   1.274   9.803
   10POPC   C2D 9836   5.783   1.224   9.698
   10POPC   C2E 9837   5.718   1.191   9.555
   10POPC   C2F 9838   5.814   1.145   9.443
   10POPC   C2G 9839   5.740   1.118   9.307
   10POPC   C2H 9840   5.833   1.054   9.203
   10POPC   C2I 9841   5.754   1.028   9.071
   10POPC   C2J 9842   5.834   0.943   8.972
   10POPC   C2K 9843   5.736   0.907   8.861
   10POPC   C2L 9844   5.807   0.834   8.746
   10POPC   C2M 9845   5.711   0.749   8.662
   10POPC   C2N 9846   5.779   0.710   8.533
   10POPC   C2O 9847   5.692   0.619   8.446
   10POPC   C2P 9848   5.764   0.574   8.320
   11POPC   CN1 9849   4.780   1.978  10.685
   11POPC   CN2 9850   4.801   1.767  10.570
   11POPC   CN3 9851   4.777   1.783  10.821
   11POPC   NTM 9852   4.840   1.844  10.695
   11POPC    CA 9853   4.996   1.855  10.719
   11POPC    CB 9854   5.058   1.712  10.738
   11POPC    OA 9855   5.032   1.635  10.620
   11POPC     P 9856   5.102   1.497  10.601
   11POPC    OB 9857   4.990   1.408  10.623
   11POPC    OC 9858   5.220   1.487  10.686
   11POPC    OD 9859   5.139   1.499  10.448
   11POPC    CC 9860   5.166   1.612  10.370
   11POPC    CD 9861   5.045   1.672  10.301
   11POPC    OE 9862   5.006   1.584  10.198
   11POPC   C1A 9863   4.883   1.603  10.152
   11POPC    OF 9864   4.798   1.682  10.195
   11POPC   C1B 9865   4.861   1.494  10.049
   11POPC   C1C 9866   4.729   1.502   9.965
   11POPC   C1D 9867   4.746   1.608   9.855
   11POPC   C1E 9868   4.644   1.601   9.744
   11POPC   C1F 9869   4.644   1.724   9.650
   11POPC   C1G 9870   4.556   1.684   9.528
   11POPC   C1H 9871   4.580   1.785   9.413
   11POPC   C1I 9872   4.469   1.747   9.314
   11POPC   C1J 9873   4.486   1.711   9.189
   11POPC   C1K 9874   4.610   1.686   9.115
   11POPC   C1L 9875   4.605   1.681   8.957
   11POPC   C1M 9876   4.580   1.826   8.910
   11POPC   C1N 9877   4.597   1.851   8.759
   11POPC   C1O 9878   4.540   1.744   8.660
   11POPC   C1P 9879   4.541   1.781   8.519
   11POPC   C1Q 9880   4.681   1.771   8.452
   11POPC   C1R 9881   4.679   1.835   8.307
   11POPC    CE 9882   5.067   1.813  10.259
   11POPC    OG 9883   5.173   1.825  10.162
   11POPC   C2A 9884   5.142   1.847  10.037
   11POPC    OH 9885   5.029   1.874   9.995
   11POPC   C2B 9886   5.264   1.840   9.951
   11POPC   C2C 9887   5.223   1.789   9.809
   11POPC   C2D 9888   5.340   1.757   9.720
   11POPC   C2E 9889   5.304   1.710   9.571
   11POPC   C2F 9890   5.423   1.681   9.476
   11POPC   C2G 9891   5.375   1.639   9.332
   11POPC   C2H 9892   5.494   1.592   9.246
   11POPC   C2I 9893   5.441   1.550   9.105
   11POPC   C2J 9894   5.549   1.480   9.022
   11POPC   C2K 9895   5.478   1.425   8.900
   11POPC   C2L 9896   5.577   1.365   8.799
   11POPC   C2M 9897   5.512   1.262   8.706
   11POPC   C2N 9898   5.605   1.235   8.590
   11POPC   C2O 9899   5.550   1.128   8.495
   11POPC   C2P 9900   5.647   1.095   8.383
   12POPC   CN1 9901   3.982   0.719  10.715
   12POPC   CN2 9902   3.805   0.824  10.589
   12POPC   CN3 9903   3.827   0.848  10.840
   12POPC   NTM 9904   3.839   0.754  10.720
   12POPC    CA 9905   3.752   0.625  10.750
   12POPC    CB 9906   3.601   0.664  10.763
   12POPC    OA 9907   3.558   0.725  10.640
   12POPC     P 9908   3.407   0.752  10.616
   12POPC    OB 9909   3.404   0.896  10.629
   12POPC    OC 9910   3.325   0.670  10.704
   12POPC    OD 9911   3.389   0.712  10.465
   12POPC    CC 9912   3.464   0.616  10.394
   12POPC    CD 9913   3.587   0.671  10.324
   12POPC    OE 9914   3.543   0.749  10.215
   12POPC   C1A 9915   3.635   0.833  10.166
   12POPC    OF 9916   3.748   0.855  10.210
   12POPC   C1B 9917   3.565   0.910  10.056
   12POPC   C1C 9918   3.653   1.004   9.968
   12POPC   C1D 9919   3.729   0.919   9.865
   12POPC   C1E 9920   3.788   0.998   9.750
   12POPC   C1F 9921   3.887   0.917   9.664
   12POPC   C1G 9922   3.913   1.003   9.536
   12POPC   C1H 9923   3.980   0.915   9.428
   12POPC   C1I 9924   4.021   1.020   9.323
   12POPC   C1J 9925   3.984   1.021   9.197
   12POPC   C1K 9926   3.891   0.933   9.126
   12POPC   C1L 9927   3.893   0.930   8.968
   12POPC   C1M 9928   4.024   0.859   8.929
   12POPC   C1N 9929   4.037   0.821   8.780
   12POPC   C1O 9930   3.990   0.925   8.673
   12POPC   C1P 9931   4.021   0.893   8.534
   12POPC   C1Q 9932   3.930   0.785   8.472
   12POPC   C1R 9933   3.984   0.738   8.331
   12POPC    CE 9934   3.686   0.566  10.291
   12POPC    OG 9935   3.632   0.469  10.199
   12POPC   C2A 9936   3.672   0.472  10.075
   12POPC    OH 9937   3.763   0.542  10.029
   12POPC   C2B 9938   3.594   0.375   9.992
   12POPC   C2C 9939   3.582   0.429   9.846
   12POPC   C2D 9940   3.487   0.351   9.760
   12POPC   C2E 9941   3.475   0.398   9.608
   12POPC   C2F 9942   3.382   0.316   9.515
   12POPC   C2G 9943   3.381   0.370   9.367
   12POPC   C2H 9944   3.274   0.300   9.283
   12POPC   C2I 9945   3.276   0.358   9.138
   12POPC   C2J 9946   3.156   0.310   9.055
   12POPC   C2K 9947   3.159   0.393   8.928
   12POPC   C2L 9948   3.052   0.344   8.828
   12POPC   C2M 9949   3.013   0.453   8.727
   12POPC   C2N 9950   2.938   0.389   8.613
   12POPC   C2O 9951   2.889   0.491   8.510
   12POPC   C2P 9952   2.806   0.427   8.399
   13POPC   CN1 9953   1.322   0.004  10.758
   13POPC   CN2 9954   1.277   0.199  10.624
   13POPC   CN3 9955   1.275   0.204  10.877
   13POPC   NTM 9956   1.238   0.125  10.751
   13POPC    CA 9957   1.085   0.086  10.760
   13POPC    CB 9958   0.997   0.217  10.760
   13POPC    OA 9959   1.023   0.289  10.639
   13POPC     P 9960   0.932   0.410  10.601
   13POPC    OB 9961   1.023   0.520  10.626
   13POPC    OC 9962   0.804   0.404  10.672
   13POPC    OD 9963   0.913   0.391  10.446
   13POPC    CC 9964   0.915   0.269  10.376
   13POPC    CD 9965   1.052   0.228  10.325
   13POPC    OE 9966   1.086   0.315  10.219
   13POPC   C1A 9967   1.216   0.316  10.187
   13POPC    OF 9968   1.308   0.257  10.245
   13POPC   C1B 9969   1.230   0.419  10.077
   13POPC   C1C 9970   1.370   0.431  10.008
   13POPC   C1D 9971   1.384   0.316   9.907
   13POPC   C1E 9972   1.495   0.334   9.806
   13POPC   C1F 9973   1.527   0.207   9.724
   13POPC   C1G 9974   1.621   0.254   9.608
   13POPC   C1H 9975   1.628   0.142   9.501
   13POPC   C1I 9976   1.741   0.194   9.410
   13POPC   C1J 9977   1.732   0.218   9.282
   13POPC   C1K 9978   1.615   0.213   9.193
   13POPC   C1L 9979   1.637   0.209   9.037
   13POPC   C1M 9980   1.692   0.068   9.006
   13POPC   C1N 9981   1.698   0.030   8.856
   13POPC   C1O 9982   1.746   0.138   8.754
   13POPC   C1P 9983   1.767   0.093   8.618
   13POPC   C1Q 9984   1.636   0.072   8.537
   13POPC   C1R 9985   1.665  -0.000   8.399
   13POPC    CE 9986   1.061   0.083  10.293
   13POPC    OG 9987   0.969   0.046  10.188
   13POPC   C2A 9988   1.019   0.021  10.069
   13POPC    OH 9989   1.138   0.013  10.040
   13POPC   C2B 9990   0.908  -0.000   9.970
   13POPC   C2C 9991   0.955   0.047   9.829
   13POPC   C2D 9992   0.845   0.051   9.727
   13POPC   C2E 9993   0.889   0.093   9.579
   13POPC   C2F 9994   0.779   0.093   9.470
   13POPC   C2G 9995   0.834   0.134   9.328
   13POPC   C2H 9996   0.720   0.152   9.227
   13POPC   C2I 9997   0.780   0.193   9.089
   13POPC   C2J 9998   0.671   0.236   8.990
   13POPC   C2K 9999   0.745   0.295   8.871
   13POPC   C2L10000   0.649   0.329   8.756
   13POPC   C2M10001   0.705   0.435   8.662
   13POPC   C2N10002   0.623   0.437   8.535
   13POPC   C2O10003   0.668   0.545   8.437
   13POPC   C2P10004   0.580   0.552   8.313
   14POPC   CN110005   6.235   3.818  10.752
   14POPC   CN210006   6.050   3.749  10.612
   14POPC   CN310007   6.035   3.759  10.865
   14POPC   NTM10008   6.122   3.723  10.745
   14POPC    CA10009   6.174   3.575  10.764
   14POPC    CB10010   6.052   3.476  10.765
   14POPC    OA10011   5.983   3.487  10.639
   14POPC     P10012   5.873   3.384  10.602
   14POPC    OB10013   5.755   3.466  10.617
   14POPC    OC10014   5.887   3.262  10.681
   14POPC    OD10015   5.900   3.359  10.450
   14POPC    CC10016   6.024   3.368  10.384
   14POPC    CD10017   6.055   3.505  10.326
   14POPC    OE10018   5.970   3.525  10.215
   14POPC   C1A10019   5.959   3.652  10.176
   14POPC    OF10020   6.006   3.752  10.231
   14POPC   C1B10021   5.859   3.650  10.062
   14POPC   C1C10022   5.839   3.784   9.984
   14POPC   C1D10023   5.956   3.804   9.887
   14POPC   C1E10024   5.932   3.907   9.779
   14POPC   C1F10025   6.059   3.946   9.700
   14POPC   C1G10026   6.009   4.029   9.577
   14POPC   C1H10027   6.124   4.040   9.474
   14POPC   C1I10028   6.066   4.143   9.375
   14POPC   C1J10029   6.049   4.124   9.246
   14POPC   C1K10030   6.068   4.003   9.165
   14POPC   C1L10031   6.077   4.017   9.008
   14POPC   C1M10032   6.213   4.083   8.979
   14POPC   C1N10033   6.258   4.084   8.831
   14POPC   C1O10034   6.150   4.116   8.722
   14POPC   C1P10035   6.199   4.133   8.587
   14POPC   C1Q10036   6.235   4.001   8.514
   14POPC   C1R10037   6.310   4.029   8.378
   14POPC    CE10038   6.200   3.525  10.300
   14POPC    OG10039   6.250   3.432  10.202
   14POPC   C2A10040   6.275   3.477  10.081
   14POPC    OH10041   6.274   3.595  10.046
   14POPC   C2B10042   6.311   3.364   9.990
   14POPC   C2C10043   6.265   3.398   9.845
   14POPC   C2D10044   6.276   3.283   9.749
   14POPC   C2E10045   6.236   3.314   9.598
   14POPC   C2F10046   6.251   3.198   9.495
   14POPC   C2G10047   6.212   3.241   9.349
   14POPC   C2H10048   6.209   3.121   9.254
   14POPC   C2I10049   6.168   3.169   9.111
   14POPC   C2J10050   6.140   3.051   9.017
   14POPC   C2K10051   6.080   3.113   8.892
   14POPC   C2L10052   6.060   3.008   8.782
   14POPC   C2M10053   5.953   3.048   8.680
   14POPC   C2N10054   5.964   2.960   8.559
   14POPC   C2O10055   5.857   2.989   8.454
   14POPC   C2P10056   5.863   2.894   8.335
   15POPC   CN110057   0.967   3.250  10.750
   15POPC   CN210058   1.155   3.248  10.597
   15POPC   CN310059   1.179   3.198  10.844
   15POPC   NTM10060   1.110   3.285  10.738
   15POPC    CA10061   1.133   3.436  10.777
   15POPC    CB10062   1.286   3.470  10.773
   15POPC    OA10063   1.335   3.445  10.640
   15POPC     P10064   1.477   3.493  10.600
   15POPC    OB10065   1.546   3.366  10.594
   15POPC    OC10066   1.525   3.597  10.691
   15POPC    OD10067   1.455   3.548  10.454
   15POPC    CC10068   1.337   3.603  10.403
   15POPC    CD10069   1.244   3.503  10.337
   15POPC    OE10070   1.303   3.462  10.215
   15POPC   C1A10071   1.253   3.350  10.163
   15POPC    OF10072   1.169   3.275  10.214
   15POPC   C1B10073   1.335   3.322  10.039
   15POPC   C1C10074   1.288   3.205   9.948
   15POPC   C1D10075   1.169   3.253   9.863
   15POPC   C1E10076   1.137   3.164   9.745
   15POPC   C1F10077   1.001   3.197   9.678
   15POPC   C1G10078   1.000   3.118   9.543
   15POPC   C1H10079   0.887   3.173   9.453
   15POPC   C1I10080   0.885   3.069   9.339
   15POPC   C1J10081   0.901   3.095   9.212
   15POPC   C1K10082   0.934   3.221   9.144
   15POPC   C1L10083   0.910   3.234   8.989
   15POPC   C1M10084   0.758   3.240   8.970
   15POPC   C1N10085   0.709   3.278   8.828
   15POPC   C1O10086   0.784   3.216   8.706
   15POPC   C1P10087   0.723   3.240   8.575
   15POPC   C1Q10088   0.747   3.383   8.520
   15POPC   C1R10089   0.659   3.410   8.391
   15POPC    CE10090   1.105   3.553  10.325
   15POPC    OG10091   1.096   3.671  10.242
   15POPC   C2A10092   1.046   3.658  10.122
   15POPC    OH10093   0.991   3.558  10.076
   15POPC   C2B10094   1.061   3.787  10.046
   15POPC   C2C10095   1.076   3.755   9.894
   15POPC   C2D10096   1.113   3.875   9.811
   15POPC   C2E10097   1.125   3.849   9.654
   15POPC   C2F10098   1.158   3.972   9.565
   15POPC   C2G10099   1.165   3.936   9.412
   15POPC   C2H10100   1.216   4.054   9.328
   15POPC   C2I10101   1.222   4.012   9.178
   15POPC   C2J10102   1.295   4.116   9.092
   15POPC   C2K10103   1.312   4.051   8.956
   15POPC   C2L10104   1.372   4.150   8.854
   15POPC   C2M10105   1.442   4.080   8.738
   15POPC   C2N10106   1.464   4.180   8.626
   15POPC   C2O10107   1.540   4.119   8.508
   15POPC   C2P10108   1.570   4.222   8.400
   16POPC   CN110109   4.725   1.258  10.771
   16POPC   CN210110   4.538   1.178  10.640
   16POPC   CN310111   4.531   1.197  10.892
   16POPC   NTM10112   4.615   1.160  10.770
   16POPC    CA10113   4.673   1.014  10.793
   16POPC    CB10114   4.555   0.911  10.801
   16POPC    OA10115   4.481   0.916  10.678
   16POPC     P10116   4.373   0.808  10.648
   16POPC    OB10117   4.253   0.886  10.664
   16POPC    OC10118   4.394   0.689  10.731
   16POPC    OD10119   4.396   0.778  10.495
   16POPC    CC10120   4.517   0.790  10.425
   16POPC    CD10121   4.542   0.925  10.362
   16POPC    OE10122   4.453   0.939  10.253
   16POPC   C1A10123   4.436   1.064  10.210
   16POPC    OF10124   4.482   1.167  10.260
   16POPC   C1B10125   4.333   1.055  10.099
   16POPC   C1C10126   4.305   1.186  10.019
   16POPC   C1D10127   4.418   1.205   9.916
   16POPC   C1E10128   4.387   1.304   9.806
   16POPC   C1F10129   4.510   1.344   9.722
   16POPC   C1G10130   4.453   1.421   9.597
   16POPC   C1H10131   4.564   1.432   9.490
   16POPC   C1I10132   4.500   1.530   9.390
   16POPC   C1J10133   4.480   1.506   9.263
   16POPC   C1K10134   4.499   1.384   9.185
   16POPC   C1L10135   4.503   1.392   9.028
   16POPC   C1M10136   4.636   1.461   8.992
   16POPC   C1N10137   4.675   1.459   8.842
   16POPC   C1O10138   4.563   1.484   8.736
   16POPC   C1P10139   4.608   1.498   8.599
   16POPC   C1Q10140   4.645   1.364   8.529
   16POPC   C1R10141   4.715   1.390   8.390
   16POPC    CE10142   4.685   0.949  10.330
   16POPC    OG10143   4.735   0.855  10.233
   16POPC   C2A10144   4.755   0.896  10.111
   16POPC    OH10145   4.748   1.013  10.071
   16POPC   C2B10146   4.791   0.781  10.022
   16POPC   C2C10147   4.740   0.809   9.878
   16POPC   C2D10148   4.751   0.691   9.785
   16POPC   C2E10149   4.705   0.715   9.634
   16POPC   C2F10150   4.721   0.597   9.536
   16POPC   C2G10151   4.675   0.633   9.390
   16POPC   C2H10152   4.673   0.510   9.299
   16POPC   C2I10153   4.626   0.552   9.156
   16POPC   C2J10154   4.598   0.430   9.067
   16POPC   C2K10155   4.532   0.485   8.942
   16POPC   C2L10156   4.512   0.375   8.836
   16POPC   C2M10157   4.400   0.409   8.737
   16POPC   C2N10158   4.411   0.317   8.618
   16POPC   C2O10159   4.299   0.339   8.516
   16POPC   C2P10160   4.305   0.240   8.400
   17POPC   CN110161   5.095   6.086  10.700
   17POPC   CN210162   5.301   6.008  10.600
   17POPC   CN310163   5.274   6.041  10.849
   17POPC   NTM10164   5.242   6.096  10.710
   17POPC    CA10165   5.287   6.247  10.706
   17POPC    CB10166   5.442   6.257  10.725
   17POPC    OA10167   5.507   6.183  10.620
   17POPC     P10168   5.661   6.196  10.600
   17POPC    OB10169   5.703   6.066  10.648
   17POPC    OC10170   5.712   6.317  10.663
   17POPC    OD10171   5.674   6.201  10.443
   17POPC    CC10172   5.579   6.251  10.353
   17POPC    CD10173   5.481   6.148  10.301
   17POPC    OE10174   5.550   6.062  10.214
   17POPC   C1A10175   5.489   5.946  10.188
   17POPC    OF10176   5.384   5.905  10.239
   17POPC   C1B10177   5.583   5.868  10.100
   17POPC   C1C10178   5.530   5.734  10.040
   17POPC   C1D10179   5.438   5.766   9.920
   17POPC   C1E10180   5.409   5.649   9.830
   17POPC   C1F10181   5.296   5.674   9.728
   17POPC   C1G10182   5.302   5.556   9.626
   17POPC   C1H10183   5.218   5.592   9.501
   17POPC   C1I10184   5.215   5.458   9.427
   17POPC   C1J10185   5.257   5.437   9.304
   17POPC   C1K10186   5.325   5.528   9.211
   17POPC   C1L10187   5.330   5.491   9.058
   17POPC   C1M10188   5.187   5.511   9.005
   17POPC   C1N10189   5.171   5.506   8.851
   17POPC   C1O10190   5.251   5.397   8.772
   17POPC   C1P10191   5.219   5.385   8.630
   17POPC   C1Q10192   5.280   5.496   8.541
   17POPC   C1R10193   5.221   5.489   8.395
   17POPC    CE10194   5.358   6.209  10.245
   17POPC    OG10195   5.386   6.293  10.130
   17POPC   C2A10196   5.356   6.248  10.012
   17POPC    OH10197   5.291   6.146   9.987
   17POPC   C2B10198   5.408   6.340   9.906
   17POPC   C2C10199   5.442   6.258   9.778
   17POPC   C2D10200   5.515   6.337   9.673
   17POPC   C2E10201   5.548   6.259   9.537
   17POPC   C2F10202   5.619   6.340   9.425
   17POPC   C2G10203   5.643   6.254   9.295
   17POPC   C2H10204   5.730   6.329   9.194
   17POPC   C2I10205   5.752   6.240   9.068
   17POPC   C2J10206   5.857   6.299   8.974
   17POPC   C2K10207   5.884   6.190   8.870
   17POPC   C2L10208   5.978   6.241   8.760
   17POPC   C2M10209   6.051   6.127   8.688
   17POPC   C2N10210   6.111   6.180   8.560
   17POPC   C2O10211   6.193   6.075   8.485
   17POPC   C2P10212   6.260   6.131   8.360
   18POPC   CN110213   4.711   4.275  10.737
   18POPC   CN210214   4.617   4.103  10.597
   18POPC   CN310215   4.586   4.106  10.848
   18POPC   NTM10216   4.682   4.130  10.732
   18POPC    CA10217   4.814   4.048  10.760
   18POPC    CB10218   4.781   3.894  10.762
   18POPC    OA10219   4.726   3.858  10.634
   18POPC     P10220   4.707   3.707  10.600
   18POPC    OB10221   4.563   3.697  10.607
   18POPC    OC10222   4.790   3.622  10.685
   18POPC    OD10223   4.752   3.701  10.449
   18POPC    CC10224   4.846   3.785  10.386
   18POPC    CD10225   4.787   3.909  10.323
   18POPC    OE10226   4.714   3.870  10.209
   18POPC   C1A10227   4.628   3.961  10.163
   18POPC    OF10228   4.600   4.070  10.214
   18POPC   C1B10229   4.557   3.895  10.046
   18POPC   C1C10230   4.462   3.985   9.962
   18POPC   C1D10231   4.546   4.072   9.867
   18POPC   C1E10232   4.468   4.135   9.754
   18POPC   C1F10233   4.547   4.243   9.677
   18POPC   C1G10234   4.463   4.274   9.548
   18POPC   C1H10235   4.551   4.352   9.448
   18POPC   C1I10236   4.447   4.395   9.343
   18POPC   C1J10237   4.452   4.367   9.215
   18POPC   C1K10238   4.545   4.282   9.140
   18POPC   C1L10239   4.552   4.296   8.983
   18POPC   C1M10240   4.619   4.431   8.954
   18POPC   C1N10241   4.660   4.457   8.808
   18POPC   C1O10242   4.562   4.412   8.695
   18POPC   C1P10243   4.596   4.454   8.560
   18POPC   C1Q10244   4.710   4.372   8.495
   18POPC   C1R10245   4.758   4.438   8.359
   18POPC    CE10246   4.889   4.015  10.299
   18POPC    OG10247   4.991   3.972  10.207
   18POPC   C2A10248   4.989   4.020  10.086
   18POPC    OH10249   4.916   4.111  10.044
   18POPC   C2B10250   5.092   3.952  10.001
   18POPC   C2C10251   5.043   3.948   9.853
   18POPC   C2D10252   5.128   3.862   9.763
   18POPC   C2E10253   5.085   3.859   9.609
   18POPC   C2F10254   5.174   3.776   9.513
   18POPC   C2G10255   5.124   3.782   9.364
   18POPC   C2H10256   5.201   3.684   9.275
   18POPC   C2I10257   5.147   3.693   9.129
   18POPC   C2J10258   5.203   3.582   9.040
   18POPC   C2K10259   5.124   3.589   8.910
   18POPC   C2L10260   5.179   3.492   8.805
   18POPC   C2M10261   5.076   3.455   8.698
   18POPC   C2N10262   5.146   3.391   8.581
   18POPC   C2O10263   5.049   3.344   8.473
   18POPC   C2P10264   5.120   3.272   8.359
   19POPC   CN110265   4.039   4.989  10.755
   19POPC   CN210266   3.862   4.935  10.600
   19POPC   CN310267   3.821   4.974  10.847
   19POPC   NTM10268   3.914   4.913  10.742
   19POPC    CA10269   3.938   4.761  10.781
   19POPC    CB10270   3.802   4.683  10.774
   19POPC    OA10271   3.750   4.692  10.641
   19POPC     P10272   3.629   4.603  10.600
   19POPC    OB10273   3.524   4.703  10.593
   19POPC    OC10274   3.614   4.489  10.690
   19POPC    OD10275   3.668   4.558  10.455
   19POPC    CC10276   3.798   4.541  10.404
   19POPC    CD10277   3.857   4.665  10.339
   19POPC    OE10278   3.790   4.686  10.217
   19POPC   C1A10279   3.804   4.808  10.165
   19POPC    OF10280   3.861   4.905  10.217
   19POPC   C1B10281   3.718   4.810  10.040
   19POPC   C1C10282   3.728   4.936   9.950
   19POPC   C1D10283   3.857   4.927   9.866
   19POPC   C1E10284   3.862   5.021   9.748
   19POPC   C1F10285   4.002   5.031   9.682
   19POPC   C1G10286   3.980   5.107   9.547
   19POPC   C1H10287   4.106   5.089   9.458
   19POPC   C1I10288   4.077   5.189   9.345
   19POPC   C1J10289   4.071   5.160   9.217
   19POPC   C1K10290   4.078   5.030   9.149
   19POPC   C1L10291   4.107   5.025   8.994
   19POPC   C1M10292   4.254   5.066   8.977
   19POPC   C1N10293   4.313   5.044   8.836
   19POPC   C1O10294   4.225   5.081   8.712
   19POPC   C1P10295   4.291   5.076   8.583
   19POPC   C1Q10296   4.312   4.933   8.527
   19POPC   C1R10297   4.405   4.935   8.399
   19POPC    CE10298   4.005   4.660  10.329
   19POPC    OG10299   4.050   4.550  10.246
   19POPC   C2A10300   4.095   4.577  10.127
   19POPC    OH10301   4.117   4.689  10.081
   19POPC   C2B10302   4.121   4.451  10.051
   19POPC   C2C10303   4.098   4.477   9.899
   19POPC   C2D10304   4.100   4.352   9.815
   19POPC   C2E10305   4.082   4.372   9.658
   19POPC   C2F10306   4.089   4.245   9.568
   19POPC   C2G10307   4.073   4.278   9.415
   19POPC   C2H10308   4.060   4.150   9.332
   19POPC   C2I10309   4.044   4.189   9.181
   19POPC   C2J10310   4.007   4.068   9.095
   19POPC   C2K10311   3.972   4.125   8.958
   19POPC   C2L10312   3.946   4.012   8.856
   19POPC   C2M10313   3.859   4.058   8.739
   19POPC   C2N10314   3.869   3.956   8.628
   19POPC   C2O10315   3.780   3.991   8.508
   19POPC   C2P10316   3.784   3.884   8.400
   20POPC   CN110317   1.183   3.024  10.741
   20POPC   CN210318   1.154   2.816  10.622
   20POPC   CN310319   1.144   2.831  10.874
   20POPC   NTM10320   1.214   2.880  10.747
   20POPC    CA10321   1.370   2.858  10.765
   20POPC    CB10322   1.400   2.705  10.778
   20POPC    OA10323   1.354   2.638  10.660
   20POPC     P10324   1.393   2.489  10.635
   20POPC    OB10325   1.266   2.424  10.660
   20POPC    OC10326   1.510   2.452  10.715
   20POPC    OD10327   1.424   2.487  10.481
   20POPC    CC10328   1.472   2.594  10.404
   20POPC    CD10329   1.364   2.680  10.341
   20POPC    OE10330   1.304   2.605  10.238
   20POPC   C1A10331   1.185   2.651  10.197
   20POPC    OF10332   1.120   2.744  10.246
   20POPC   C1B10333   1.137   2.552  10.093
   20POPC   C1C10334   1.007   2.589  10.015
   20POPC   C1D10335   1.042   2.692   9.907
   20POPC   C1E10336   0.936   2.710   9.800
   20POPC   C1F10337   0.959   2.832   9.709
   20POPC   C1G10338   0.860   2.816   9.589
   20POPC   C1H10339   0.901   2.912   9.476
   20POPC   C1I10340   0.781   2.901   9.380
   20POPC   C1J10341   0.785   2.865   9.255
   20POPC   C1K10342   0.899   2.818   9.174
   20POPC   C1L10343   0.887   2.818   9.017
   20POPC   C1M10344   0.891   2.966   8.974
   20POPC   C1N10345   0.908   2.992   8.823
   20POPC   C1O10346   0.826   2.902   8.724
   20POPC   C1P10347   0.830   2.941   8.584
   20POPC   C1Q10348   0.962   2.904   8.511
   20POPC   C1R10349   0.968   2.971   8.368
   20POPC    CE10350   1.413   2.814  10.301
   20POPC    OG10351   1.516   2.806  10.200
   20POPC   C2A10352   1.485   2.838  10.077
   20POPC    OH10353   1.379   2.889  10.040
   20POPC   C2B10354   1.599   2.808   9.985
   20POPC   C2C10355   1.544   2.771   9.844
   20POPC   C2D10356   1.648   2.718   9.750
   20POPC   C2E10357   1.598   2.683   9.603
   20POPC   C2F10358   1.705   2.633   9.502
   20POPC   C2G10359   1.644   2.605   9.359
   20POPC   C2H10360   1.747   2.537   9.267
   20POPC   C2I10361   1.682   2.511   9.128
   20POPC   C2J10362   1.770   2.422   9.039
   20POPC   C2K10363   1.684   2.387   8.919
   20POPC   C2L10364   1.765   2.310   8.813
   20POPC   C2M10365   1.676   2.225   8.721
   20POPC   C2N10366   1.757   2.183   8.601
   20POPC   C2O10367   1.677   2.092   8.506
   20POPC   C2P10368   1.762   2.043   8.389
   21POPC   CN110369   3.507   1.822  10.688
   21POPC   CN210370   3.382   1.644  10.583
   21POPC   CN310371   3.390   1.675  10.834
   21POPC   NTM10372   3.469   1.680  10.703
   21POPC    CA10373   3.598   1.590  10.720
   21POPC    CB10374   3.556   1.441  10.744
   21POPC    OA10375   3.480   1.396  10.631
   21POPC     P10376   3.447   1.245  10.616
   21POPC    OB10377   3.305   1.247  10.646
   21POPC    OC10378   3.536   1.163  10.696
   21POPC    OD10379   3.467   1.221  10.462
   21POPC    CC10380   3.555   1.290  10.377
   21POPC    CD10381   3.496   1.412  10.310
   21POPC    OE10382   3.404   1.368  10.212
   21POPC   C1A10383   3.318   1.460  10.170
   21POPC    OF10384   3.304   1.575  10.213
   21POPC   C1B10385   3.226   1.388  10.073
   21POPC   C1C10386   3.124   1.477   9.995
   21POPC   C1D10387   3.198   1.546   9.879
   21POPC   C1E10388   3.107   1.604   9.772
   21POPC   C1F10389   3.180   1.698   9.673
   21POPC   C1G10390   3.079   1.722   9.556
   21POPC   C1H10391   3.155   1.783   9.436
   21POPC   C1I10392   3.039   1.823   9.343
   21POPC   C1J10393   3.022   1.782   9.219
   21POPC   C1K10394   3.098   1.684   9.141
   21POPC   C1L10395   3.082   1.681   8.984
   21POPC   C1M10396   3.151   1.808   8.932
   21POPC   C1N10397   3.171   1.815   8.779
   21POPC   C1O10398   3.053   1.767   8.687
   21POPC   C1P10399   3.069   1.793   8.545
   21POPC   C1Q10400   3.167   1.696   8.473
   21POPC   C1R10401   3.197   1.744   8.326
   21POPC    CE10402   3.599   1.507  10.260
   21POPC    OG10403   3.683   1.447  10.159
   21POPC   C2A10404   3.665   1.483  10.035
   21POPC    OH10405   3.592   1.574   9.995
   21POPC   C2B10406   3.749   1.399   9.944
   21POPC   C2C10407   3.677   1.384   9.806
   21POPC   C2D10408   3.742   1.284   9.715
   21POPC   C2E10409   3.676   1.268   9.570
   21POPC   C2F10410   3.744   1.169   9.472
   21POPC   C2G10411   3.672   1.164   9.332
   21POPC   C2H10412   3.729   1.053   9.243
   21POPC   C2I10413   3.653   1.052   9.107
   21POPC   C2J10414   3.688   0.928   9.023
   21POPC   C2K10415   3.590   0.929   8.907
   21POPC   C2L10416   3.623   0.818   8.806
   21POPC   C2M10417   3.502   0.778   8.720
   21POPC   C2N10418   3.550   0.697   8.602
   21POPC   C2O10419   3.434   0.648   8.514
   21POPC   C2P10420   3.482   0.559   8.400
   22POPC   CN110421   3.039   6.191  10.730
   22POPC   CN210422   2.985   6.002  10.590
   22POPC   CN310423   2.940   6.004  10.839
   22POPC   NTM10424   3.037   6.043  10.727
   22POPC    CA10425   3.180   5.986  10.764
   22POPC    CB10426   3.174   5.829  10.768
   22POPC    OA10427   3.133   5.781  10.639
   22POPC     P10428   3.143   5.629  10.607
   22POPC    OB10429   3.002   5.594  10.608
   22POPC    OC10430   3.235   5.562  10.698
   22POPC    OD10431   3.195   5.629  10.459
   22POPC    CC10432   3.276   5.726  10.398
   22POPC    CD10433   3.200   5.838  10.329
   22POPC    OE10434   3.141   5.784  10.213
   22POPC   C1A10435   3.043   5.858  10.160
   22POPC    OF10436   2.993   5.961  10.208
   22POPC   C1B10437   2.991   5.779  10.042
   22POPC   C1C10438   2.885   5.849   9.951
   22POPC   C1D10439   2.958   5.947   9.858
   22POPC   C1E10440   2.876   5.994   9.740
   22POPC   C1F10441   2.938   6.113   9.664
   22POPC   C1G10442   2.857   6.126   9.531
   22POPC   C1H10443   2.935   6.217   9.433
   22POPC   C1I10444   2.830   6.239   9.322
   22POPC   C1J10445   2.846   6.210   9.195
   22POPC   C1K10446   2.957   6.142   9.127
   22POPC   C1L10447   2.970   6.154   8.970
   22POPC   C1M10448   3.013   6.299   8.941
   22POPC   C1N10449   3.057   6.329   8.796
   22POPC   C1O10450   2.973   6.266   8.680
   22POPC   C1P10451   3.007   6.311   8.545
   22POPC   C1Q10452   3.137   6.249   8.488
   22POPC   C1R10453   3.179   6.320   8.354
   22POPC    CE10454   3.283   5.959  10.308
   22POPC    OG10455   3.395   5.934  10.222
   22POPC   C2A10456   3.391   5.979  10.099
   22POPC    OH10457   3.306   6.054  10.052
   22POPC   C2B10458   3.509   5.928  10.021
   22POPC   C2C10459   3.468   5.913   9.871
   22POPC   C2D10460   3.572   5.843   9.788
   22POPC   C2E10461   3.538   5.829   9.632
   22POPC   C2F10462   3.645   5.761   9.542
   22POPC   C2G10463   3.602   5.756   9.391
   22POPC   C2H10464   3.701   5.672   9.308
   22POPC   C2I10465   3.653   5.669   9.159
   22POPC   C2J10466   3.732   5.568   9.076
   22POPC   C2K10467   3.660   5.559   8.943
   22POPC   C2L10468   3.737   5.472   8.843
   22POPC   C2M10469   3.647   5.415   8.732
   22POPC   C2N10470   3.734   5.362   8.620
   22POPC   C2O10471   3.652   5.297   8.509
   22POPC   C2P10472   3.740   5.237   8.400
   23POPC   CN110473   5.742   5.004  10.767
   23POPC   CN210474   5.932   5.015  10.620
   23POPC   CN310475   5.955   4.977  10.869
   23POPC   NTM10476   5.881   5.053  10.758
   23POPC    CA10477   5.887   5.207  10.791
   23POPC    CB10478   6.036   5.256  10.789
   23POPC    OA10479   6.091   5.231  10.658
   23POPC     P10480   6.229   5.292  10.620
   23POPC    OB10481   6.310   5.172  10.621
   23POPC    OC10482   6.263   5.403  10.708
   23POPC    OD10483   6.206   5.338  10.472
   23POPC    CC10484   6.084   5.379  10.415
   23POPC    CD10485   6.003   5.268  10.351
   23POPC    OE10486   6.069   5.228  10.233
   23POPC   C1A10487   6.032   5.110  10.184
   23POPC    OF10488   5.955   5.029  10.236
   23POPC   C1B10489   6.120   5.086  10.064
   23POPC   C1C10490   6.088   4.960   9.976
   23POPC   C1D10491   5.967   4.993   9.887
   23POPC   C1E10492   5.947   4.897   9.771
   23POPC   C1F10493   5.811   4.913   9.700
   23POPC   C1G10494   5.822   4.829   9.568
   23POPC   C1H10495   5.706   4.869   9.473
   23POPC   C1I10496   5.718   4.761   9.364
   23POPC   C1J10497   5.734   4.784   9.236
   23POPC   C1K10498   5.757   4.909   9.164
   23POPC   C1L10499   5.736   4.914   9.008
   23POPC   C1M10500   5.584   4.904   8.985
   23POPC   C1N10501   5.536   4.931   8.841
   23POPC   C1O10502   5.620   4.872   8.723
   23POPC   C1P10503   5.561   4.886   8.590
   23POPC   C1Q10504   5.572   5.028   8.529
   23POPC   C1R10505   5.486   5.040   8.398
   23POPC    CE10506   5.860   5.303  10.334
   23POPC    OG10507   5.842   5.416  10.246
   23POPC   C2A10508   5.797   5.394  10.125
   23POPC    OH10509   5.753   5.287  10.082
   23POPC   C2B10510   5.801   5.520  10.045
   23POPC   C2C10511   5.823   5.484   9.894
   23POPC   C2D10512   5.851   5.603   9.807
   23POPC   C2E10513   5.870   5.574   9.652
   23POPC   C2F10514   5.893   5.695   9.558
   23POPC   C2G10515   5.907   5.654   9.407
   23POPC   C2H10516   5.949   5.773   9.320
   23POPC   C2I10517   5.963   5.726   9.172
   23POPC   C2J10518   6.027   5.834   9.084
   23POPC   C2K10519   6.055   5.766   8.951
   23POPC   C2L10520   6.107   5.866   8.847
   23POPC   C2M10521   6.187   5.799   8.735
   23POPC   C2N10522   6.203   5.896   8.620
   23POPC   C2O10523   6.288   5.839   8.506
   23POPC   C2P10524   6.310   5.941   8.395
   24POPC   CN110525   4.803   2.913  10.731
   24POPC   CN210526   4.693   2.737  10.609
   24POPC   CN310527   4.696   2.745  10.862
   24POPC   NTM10528   4.776   2.768  10.733
   24POPC    CA10529   4.911   2.687  10.744
   24POPC    CB10530   4.881   2.534  10.753
   24POPC    OA10531   4.809   2.493  10.636
   24POPC     P10532   4.788   2.342  10.607
   24POPC    OB10533   4.646   2.331  10.635
   24POPC    OC10534   4.883   2.260  10.681
   24POPC    OD10535   4.811   2.333  10.452
   24POPC    CC10536   4.894   2.417  10.375
   24POPC    CD10537   4.826   2.539  10.318
   24POPC    OE10538   4.738   2.497  10.216
   24POPC   C1A10539   4.645   2.586  10.180
   24POPC    OF10540   4.623   2.695  10.233
   24POPC   C1B10541   4.560   2.517  10.076
   24POPC   C1C10542   4.452   2.604  10.004
   24POPC   C1D10543   4.521   2.689   9.897
   24POPC   C1E10544   4.427   2.749   9.794
   24POPC   C1F10545   4.493   2.856   9.705
   24POPC   C1G10546   4.392   2.883   9.589
   24POPC   C1H10547   4.464   2.960   9.475
   24POPC   C1I10548   4.345   2.999   9.385
   24POPC   C1J10549   4.333   2.969   9.258
   24POPC   C1K10550   4.416   2.884   9.173
   24POPC   C1L10551   4.401   2.894   9.016
   24POPC   C1M10552   4.461   3.030   8.976
   24POPC   C1N10553   4.481   3.052   8.824
   24POPC   C1O10554   4.369   3.004   8.727
   24POPC   C1P10555   4.384   3.043   8.588
   24POPC   C1Q10556   4.489   2.961   8.509
   24POPC   C1R10557   4.516   3.025   8.367
   24POPC    CE10558   4.921   2.646  10.278
   24POPC    OG10559   5.010   2.602  10.173
   24POPC   C2A10560   4.991   2.647  10.052
   24POPC    OH10561   4.912   2.736  10.020
   24POPC   C2B10562   5.082   2.578   9.955
   24POPC   C2C10563   5.012   2.570   9.816
   24POPC   C2D10564   5.085   2.484   9.717
   24POPC   C2E10565   5.022   2.476   9.571
   24POPC   C2F10566   5.098   2.392   9.465
   24POPC   C2G10567   5.027   2.395   9.324
   24POPC   C2H10568   5.093   2.296   9.227
   24POPC   C2I10569   5.019   2.301   9.090
   24POPC   C2J10570   5.063   2.188   8.996
   24POPC   C2K10571   4.967   2.193   8.879
   24POPC   C2L10572   5.009   2.094   8.769
   24POPC   C2M10573   4.892   2.053   8.678
   24POPC   C2N10574   4.946   1.987   8.554
   24POPC   C2O10575   4.835   1.937   8.461
   24POPC   C2P10576   4.891   1.863   8.340
   25POPC   CN110577   2.923   3.969  10.773
   25POPC   CN210578   3.034   3.795  10.646
   25POPC   CN310579   3.019   3.792  10.899
   25POPC   NTM10580   3.040   3.878  10.774
   25POPC    CA10581   3.173   3.961  10.793
   25POPC    CB10582   3.295   3.863  10.803
   25POPC    OA10583   3.302   3.785  10.682
   25POPC     P10584   3.427   3.697  10.653
   25POPC    OB10585   3.371   3.566  10.675
   25POPC    OC10586   3.541   3.741  10.733
   25POPC    OD10587   3.451   3.720  10.500
   25POPC    CC10588   3.418   3.836  10.427
   25POPC    CD10589   3.279   3.834  10.365
   25POPC    OE10590   3.280   3.740  10.259
   25POPC   C1A10591   3.159   3.701  10.218
   25POPC    OF10592   3.050   3.729  10.268
   25POPC   C1B10593   3.185   3.597  10.110
   25POPC   C1C10594   3.060   3.545  10.032
   25POPC   C1D10595   3.020   3.649   9.927
   25POPC   C1E10596   2.927   3.598   9.820
   25POPC   C1F10597   2.865   3.709   9.732
   25POPC   C1G10598   2.798   3.636   9.611
   25POPC   C1H10599   2.766   3.740   9.501
   25POPC   C1I10600   2.680   3.657   9.404
   25POPC   C1J10601   2.706   3.636   9.277
   25POPC   C1K10602   2.822   3.675   9.197
   25POPC   C1L10603   2.812   3.673   9.040
   25POPC   C1M10604   2.720   3.790   9.001
   25POPC   C1N10605   2.714   3.824   8.851
   25POPC   C1O10606   2.708   3.706   8.748
   25POPC   C1P10607   2.684   3.743   8.609
   25POPC   C1Q10608   2.808   3.801   8.537
   25POPC   C1R10609   2.769   3.861   8.396
   25POPC    CE10610   3.230   3.969  10.329
   25POPC    OG10611   3.313   4.032  10.229
   25POPC   C2A10612   3.268   4.041  10.107
   25POPC    OH10613   3.154   4.013  10.069
   25POPC   C2B10614   3.374   4.093  10.016
   25POPC   C2C10615   3.354   4.034   9.873
   25POPC   C2D10616   3.467   4.062   9.778
   25POPC   C2E10617   3.449   4.008   9.629
   25POPC   C2F10618   3.562   4.041   9.528
   25POPC   C2G10619   3.532   3.985   9.384
   25POPC   C2H10620   3.654   4.002   9.291
   25POPC   C2I10621   3.619   3.944   9.150
   25POPC   C2J10622   3.743   3.935   9.060
   25POPC   C2K10623   3.698   3.856   8.938
   25POPC   C2L10624   3.809   3.852   8.831
   25POPC   C2M10625   3.794   3.734   8.736
   25POPC   C2N10626   3.882   3.757   8.615
   25POPC   C2O10627   3.878   3.639   8.517
   25POPC   C2P10628   3.973   3.659   8.400
   26POPC   CN110629   5.870   3.709  10.736
   26POPC   CN210630   5.689   3.769  10.588
   26POPC   CN310631   5.687   3.822  10.836
   26POPC   NTM10632   5.723   3.720  10.728
   26POPC    CA10633   5.656   3.582  10.768
   26POPC    CB10634   5.499   3.597  10.767
   26POPC    OA10635   5.458   3.636  10.635
   26POPC     P10636   5.306   3.635  10.598
   26POPC    OB10637   5.280   3.777  10.594
   26POPC    OC10638   5.231   3.550  10.690
   26POPC    OD10639   5.307   3.578  10.452
   26POPC    CC10640   5.402   3.489  10.398
   26POPC    CD10641   5.520   3.556  10.330
   26POPC    OE10642   5.473   3.614  10.210
   26POPC   C1A10643   5.554   3.706  10.157
   26POPC    OF10644   5.659   3.751  10.205
   26POPC   C1B10645   5.482   3.759  10.035
   26POPC   C1C10646   5.561   3.857   9.943
   26POPC   C1D10647   5.657   3.775   9.855
   26POPC   C1E10648   5.713   3.850   9.736
   26POPC   C1F10649   5.830   3.778   9.665
   26POPC   C1G10650   5.852   3.854   9.530
   26POPC   C1H10651   5.941   3.768   9.438
   26POPC   C1I10652   5.972   3.866   9.324
   26POPC   C1J10653   5.946   3.848   9.197
   26POPC   C1K10654   5.874   3.739   9.130
   26POPC   C1L10655   5.890   3.720   8.974
   26POPC   C1M10656   6.032   3.668   8.952
   26POPC   C1N10657   6.064   3.618   8.809
   26POPC   C1O10658   6.009   3.701   8.688
   26POPC   C1P10659   6.056   3.660   8.557
   26POPC   C1Q10660   5.988   3.532   8.501
   26POPC   C1R10661   6.061   3.481   8.371
   26POPC    CE10662   5.637   3.466  10.315
   26POPC    OG10663   5.607   3.352  10.231
   26POPC   C2A10664   5.655   3.349  10.110
   26POPC    OH10665   5.737   3.428  10.063
   26POPC   C2B10666   5.600   3.232  10.035
   26POPC   C2C10667   5.592   3.268   9.883
   26POPC   C2D10668   5.518   3.167   9.801
   26POPC   C2E10669   5.510   3.195   9.644
   26POPC   C2F10670   5.439   3.090   9.555
   26POPC   C2G10671   5.441   3.128   9.403
   26POPC   C2H10672   5.354   3.032   9.321
   26POPC   C2I10673   5.358   3.075   9.170
   26POPC   C2J10674   5.255   2.999   9.086
   26POPC   C2K10675   5.255   3.067   8.950
   26POPC   C2L10676   5.166   2.992   8.850
   26POPC   C2M10677   5.118   3.081   8.735
   26POPC   C2N10678   5.063   2.994   8.625
   26POPC   C2O10679   5.007   3.076   8.508
   26POPC   C2P10680   4.944   2.988   8.401
   27POPC   CN110681   4.371   0.146  10.657
   27POPC   CN210682   4.214   0.305  10.565
   27POPC   CN310683   4.245   0.272  10.814
   27POPC   NTM10684   4.236   0.204  10.677
   27POPC    CA10685   4.128   0.090  10.686
   27POPC    CB10686   3.987   0.153  10.715
   27POPC    OA10687   3.954   0.244  10.609
   27POPC     P10688   3.810   0.303  10.599
   27POPC    OB10689   3.835   0.439  10.640
   27POPC    OC10690   3.715   0.221  10.674
   27POPC    OD10691   3.783   0.299  10.445
   27POPC    CC10692   3.836   0.208  10.352
   27POPC    CD10693   3.966   0.252  10.288
   27POPC    OE10694   3.937   0.358  10.199
   27POPC   C1A10695   4.041   0.431  10.162
   27POPC    OF10696   4.157   0.423  10.203
   27POPC   C1B10697   3.985   0.541  10.074
   27POPC   C1C10698   4.088   0.633  10.002
   27POPC   C1D10699   4.145   0.559   9.880
   27POPC   C1E10700   4.216   0.647   9.779
   27POPC   C1F10701   4.296   0.569   9.673
   27POPC   C1G10702   4.335   0.674   9.564
   27POPC   C1H10703   4.383   0.599   9.437
   27POPC   C1I10704   4.440   0.714   9.353
   27POPC   C1J10705   4.402   0.748   9.232
   27POPC   C1K10706   4.293   0.695   9.150
   27POPC   C1L10707   4.292   0.724   8.995
   27POPC   C1M10708   4.405   0.640   8.935
   27POPC   C1N10709   4.409   0.631   8.781
   27POPC   C1O10710   4.380   0.762   8.699
   27POPC   C1P10711   4.402   0.754   8.555
   27POPC   C1Q10712   4.291   0.679   8.478
   27POPC   C1R10713   4.333   0.653   8.328
   27POPC    CE10714   4.043   0.140  10.228
   27POPC    OG10715   3.970   0.075  10.122
   27POPC   C2A10716   4.008   0.097   9.999
   27POPC    OH10717   4.109   0.157   9.963
   27POPC   C2B10718   3.911   0.035   9.903
   27POPC   C2C10719   3.907   0.119   9.772
   27POPC   C2D10720   3.797   0.078   9.677
   27POPC   C2E10721   3.792   0.157   9.539
   27POPC   C2F10722   3.683   0.114   9.437
   27POPC   C2G10723   3.689   0.197   9.303
   27POPC   C2H10724   3.569   0.167   9.213
   27POPC   C2I10725   3.580   0.252   9.083
   27POPC   C2J10726   3.451   0.244   8.999
   27POPC   C2K10727   3.468   0.350   8.890
   27POPC   C2L10728   3.352   0.343   8.789
   27POPC   C2M10729   3.332   0.475   8.714
   27POPC   C2N10730   3.244   0.451   8.594
   27POPC   C2O10731   3.214   0.580   8.516
   27POPC   C2P10732   3.118   0.556   8.400
   28POPC   CN110733   1.669   4.476  10.764
   28POPC   CN210734   1.687   4.289  10.613
   28POPC   CN310735   1.652   4.260  10.862
   28POPC   NTM10736   1.723   4.339  10.752
   28POPC    CA10737   1.878   4.339  10.785
   28POPC    CB10738   1.933   4.192  10.779
   28POPC    OA10739   1.910   4.139  10.648
   28POPC     P10740   1.975   4.004  10.606
   28POPC    OB10741   1.859   3.918  10.606
   28POPC    OC10742   2.089   3.972  10.693
   28POPC    OD10743   2.020   4.032  10.458
   28POPC    CC10744   2.056   4.156  10.404
   28POPC    CD10745   1.941   4.234  10.342
   28POPC    OE10746   1.904   4.168  10.222
   28POPC   C1A10747   1.784   4.201  10.175
   28POPC    OF10748   1.700   4.275  10.229
   28POPC   C1B10749   1.763   4.115  10.053
   28POPC   C1C10750   1.636   4.144   9.967
   28POPC   C1D10751   1.663   4.268   9.879
   28POPC   C1E10752   1.566   4.286   9.765
   28POPC   C1F10753   1.576   4.424   9.696
   28POPC   C1G10754   1.492   4.413   9.564
   28POPC   C1H10755   1.527   4.532   9.472
   28POPC   C1I10756   1.419   4.518   9.363
   28POPC   C1J10757   1.441   4.504   9.234
   28POPC   C1K10758   1.568   4.488   9.161
   28POPC   C1L10759   1.571   4.513   9.006
   28POPC   C1M10760   1.554   4.664   8.986
   28POPC   C1N10761   1.579   4.717   8.842
   28POPC   C1O10762   1.523   4.633   8.723
   28POPC   C1P10763   1.533   4.695   8.591
   28POPC   C1Q10764   1.676   4.690   8.530
   28POPC   C1R10765   1.684   4.780   8.400
   28POPC    CE10766   1.970   4.379  10.327
   28POPC    OG10767   2.082   4.403  10.240
   28POPC   C2A10768   2.058   4.450  10.120
   28POPC    OH10769   1.949   4.489  10.078
   28POPC   C2B10770   2.183   4.452  10.038
   28POPC   C2C10771   2.148   4.431   9.888
   28POPC   C2D10772   2.268   4.410   9.800
   28POPC   C2E10773   2.238   4.393   9.644
   28POPC   C2F10774   2.360   4.377   9.550
   28POPC   C2G10775   2.319   4.364   9.399
   28POPC   C2H10776   2.439   4.329   9.310
   28POPC   C2I10777   2.392   4.316   9.162
   28POPC   C2J10778   2.502   4.257   9.072
   28POPC   C2K10779   2.434   4.229   8.939
   28POPC   C2L10780   2.536   4.184   8.833
   28POPC   C2M10781   2.472   4.103   8.720
   28POPC   C2N10782   2.569   4.094   8.605
   28POPC   C2O10783   2.515   4.009   8.490
   28POPC   C2P10784   2.617   3.993   8.377
   29POPC   CN110785   2.868   2.244  10.756
   29POPC   CN210786   2.693   2.321  10.608
   29POPC   CN310787   2.693   2.369  10.857
   29POPC   NTM10788   2.722   2.266  10.747
   29POPC    CA10789   2.644   2.133  10.783
   29POPC    CB10790   2.490   2.160  10.782
   29POPC    OA10791   2.452   2.205  10.651
   29POPC     P10792   2.301   2.216  10.613
   29POPC    OB10793   2.285   2.360  10.612
   29POPC    OC10794   2.219   2.135  10.703
   29POPC    OD10795   2.299   2.161  10.466
   29POPC    CC10796   2.387   2.067  10.410
   29POPC    CD10797   2.510   2.127  10.344
   29POPC    OE10798   2.469   2.191  10.225
   29POPC   C1A10799   2.556   2.277  10.175
   29POPC    OF10800   2.663   2.313  10.225
   29POPC   C1B10801   2.489   2.338  10.054
   29POPC   C1C10802   2.576   2.432   9.964
   29POPC   C1D10803   2.666   2.345   9.875
   29POPC   C1E10804   2.728   2.419   9.758
   29POPC   C1F10805   2.840   2.340   9.686
   29POPC   C1G10806   2.868   2.417   9.553
   29POPC   C1H10807   2.951   2.326   9.459
   29POPC   C1I10808   2.990   2.425   9.348
   29POPC   C1J10809   2.964   2.411   9.220
   29POPC   C1K10810   2.884   2.310   9.151
   29POPC   C1L10811   2.899   2.293   8.995
   29POPC   C1M10812   3.038   2.231   8.971
   29POPC   C1N10813   3.067   2.181   8.828
   29POPC   C1O10814   3.019   2.271   8.709
   29POPC   C1P10815   3.064   2.230   8.576
   29POPC   C1Q10816   2.987   2.108   8.518
   29POPC   C1R10817   3.056   2.055   8.387
   29POPC    CE10818   2.619   2.028  10.327
   29POPC    OG10819   2.582   1.919  10.242
   29POPC   C2A10820   2.631   1.915  10.121
   29POPC    OH10821   2.719   1.989  10.075
   29POPC   C2B10822   2.568   1.805  10.042
   29POPC   C2C10823   2.563   1.844   9.891
   29POPC   C2D10824   2.482   1.750   9.806
   29POPC   C2E10825   2.478   1.783   9.650
   29POPC   C2F10826   2.400   1.685   9.559
   29POPC   C2G10827   2.405   1.726   9.407
   29POPC   C2H10828   2.312   1.639   9.323
   29POPC   C2I10829   2.320   1.685   9.173
   29POPC   C2J10830   2.212   1.619   9.087
   29POPC   C2K10831   2.218   1.690   8.953
   29POPC   C2L10832   2.124   1.624   8.851
   29POPC   C2M10833   2.084   1.719   8.737
   29POPC   C2N10834   2.023   1.638   8.625
   29POPC   C2O10835   1.974   1.727   8.510
   29POPC   C2P10836   1.906   1.646   8.400
   30POPC   CN110837   5.165   5.415  10.775
   30POPC   CN210838   5.363   5.474  10.650
   30POPC   CN310839   5.359   5.462  10.903
   30POPC   NTM10840   5.283   5.503  10.777
   30POPC    CA10841   5.238   5.654  10.794
   30POPC    CB10842   5.364   5.746  10.804
   30POPC    OA10843   5.442   5.731  10.684
   30POPC     P10844   5.560   5.829  10.657
   30POPC    OB10845   5.672   5.740  10.680
   30POPC    OC10846   5.547   5.951  10.735
   30POPC    OD10847   5.546   5.856  10.502
   30POPC    CC10848   5.427   5.853  10.428
   30POPC    CD10849   5.393   5.719  10.367
   30POPC    OE10850   5.485   5.694  10.262
   30POPC   C1A10851   5.492   5.567  10.223
   30POPC    OF10852   5.435   5.470  10.273
   30POPC   C1B10853   5.600   5.563  10.116
   30POPC   C1C10854   5.619   5.429  10.040
   30POPC   C1D10855   5.509   5.416   9.933
   30POPC   C1E10856   5.535   5.312   9.827
   30POPC   C1F10857   5.413   5.280   9.739
   30POPC   C1G10858   5.467   5.196   9.619
   30POPC   C1H10859   5.360   5.191   9.507
   30POPC   C1I10860   5.419   5.086   9.412
   30POPC   C1J10861   5.447   5.103   9.286
   30POPC   C1K10862   5.441   5.225   9.204
   30POPC   C1L10863   5.443   5.213   9.047
   30POPC   C1M10864   5.306   5.155   9.007
   30POPC   C1N10865   5.273   5.157   8.856
   30POPC   C1O10866   5.387   5.119   8.756
   30POPC   C1P10867   5.347   5.105   8.616
   30POPC   C1Q10868   5.324   5.239   8.542
   30POPC   C1R10869   5.258   5.215   8.401
   30POPC    CE10870   5.250   5.706  10.329
   30POPC    OG10871   5.212   5.802  10.228
   30POPC   C2A10872   5.194   5.759  10.106
   30POPC    OH10873   5.191   5.642  10.070
   30POPC   C2B10874   5.172   5.875  10.013
   30POPC   C2C10875   5.226   5.838   9.872
   30POPC   C2D10876   5.229   5.954   9.776
   30POPC   C2E10877   5.278   5.922   9.628
   30POPC   C2F10878   5.278   6.038   9.526
   30POPC   C2G10879   5.325   5.994   9.382
   30POPC   C2H10880   5.342   6.114   9.289
   30POPC   C2I10881   5.391   6.064   9.149
   30POPC   C2J10882   5.433   6.180   9.058
   30POPC   C2K10883   5.499   6.116   8.938
   30POPC   C2L10884   5.533   6.220   8.830
   30POPC   C2M10885   5.645   6.174   8.736
   30POPC   C2N10886   5.647   6.264   8.615
   30POPC   C2O10887   5.761   6.229   8.519
   30POPC   C2P10888   5.768   6.325   8.400
   31POPC   CN110889   2.407   5.201  10.749
   31POPC   CN210890   2.373   5.010  10.605
   31POPC   CN310891   2.343   4.999  10.856
   31POPC   NTM10892   2.427   5.055  10.741
   31POPC    CA10893   2.578   5.018  10.767
   31POPC    CB10894   2.596   4.862  10.766
   31POPC    OA10895   2.555   4.812  10.638
   31POPC     P10896   2.585   4.664  10.600
   31POPC    OB10897   2.451   4.608  10.607
   31POPC    OC10898   2.691   4.609  10.683
   31POPC    OD10899   2.628   4.676  10.449
   31POPC    CC10900   2.690   4.786  10.389
   31POPC    CD10901   2.595   4.887  10.328
   31POPC    OE10902   2.538   4.829  10.212
   31POPC   C1A10903   2.427   4.888  10.168
   31POPC    OF10904   2.366   4.981  10.222
   31POPC   C1B10905   2.380   4.805  10.050
   31POPC   C1C10906   2.260   4.861   9.968
   31POPC   C1D10907   2.312   4.972   9.874
   31POPC   C1E10908   2.217   5.010   9.762
   31POPC   C1F10909   2.257   5.139   9.688
   31POPC   C1G10910   2.167   5.143   9.560
   31POPC   C1H10911   2.225   5.248   9.461
   31POPC   C1I10912   2.112   5.256   9.357
   31POPC   C1J10913   2.125   5.234   9.228
   31POPC   C1K10914   2.240   5.186   9.152
   31POPC   C1L10915   2.242   5.204   8.995
   31POPC   C1M10916   2.261   5.354   8.969
   31POPC   C1N10917   2.292   5.394   8.823
   31POPC   C1O10918   2.212   5.323   8.709
   31POPC   C1P10919   2.231   5.376   8.575
   31POPC   C1Q10920   2.365   5.336   8.509
   31POPC   C1R10921   2.389   5.416   8.375
   31POPC    CE10922   2.657   5.020  10.306
   31POPC    OG10923   2.767   5.014  10.213
   31POPC   C2A10924   2.749   5.061  10.093
   31POPC    OH10925   2.651   5.124  10.053
   31POPC   C2B10926   2.868   5.031  10.007
   31POPC   C2C10927   2.822   5.014   9.859
   31POPC   C2D10928   2.930   4.962   9.768
   31POPC   C2E10929   2.890   4.948   9.614
   31POPC   C2F10930   3.000   4.900   9.516
   31POPC   C2G10931   2.950   4.892   9.367
   31POPC   C2H10932   3.054   4.826   9.276
   31POPC   C2I10933   2.999   4.820   9.130
   31POPC   C2J10934   3.087   4.734   9.039
   31POPC   C2K10935   3.009   4.719   8.909
   31POPC   C2L10936   3.092   4.647   8.802
   31POPC   C2M10937   3.006   4.581   8.695
   31POPC   C2N10938   3.093   4.544   8.577
   31POPC   C2O10939   3.015   4.471   8.467
   31POPC   C2P10940   3.105   4.428   8.352
   32POPC   CN110941   5.579   0.477  10.735
   32POPC   CN210942   5.564   0.687  10.617
   32POPC   CN310943   5.550   0.671  10.869
   32POPC   NTM10944   5.510   0.608  10.736
   32POPC    CA10945   5.353   0.587  10.736
   32POPC    CB10946   5.282   0.726  10.744
   32POPC    OA10947   5.321   0.805  10.631
   32POPC     P10948   5.246   0.938  10.600
   32POPC    OB10949   5.348   1.034  10.638
   32POPC    OC10950   5.116   0.942  10.666
   32POPC    OD10951   5.233   0.935  10.443
   32POPC    CC10952   5.225   0.820  10.363
   32POPC    CD10953   5.358   0.767  10.313
   32POPC    OE10954   5.407   0.858  10.217
   32POPC   C1A10955   5.537   0.846  10.190
   32POPC    OF10956   5.619   0.772  10.246
   32POPC   C1B10957   5.569   0.956  10.090
   32POPC   C1C10958   5.712   0.956  10.028
   32POPC   C1D10959   5.718   0.849   9.918
   32POPC   C1E10960   5.835   0.863   9.823
   32POPC   C1F10961   5.856   0.740   9.732
   32POPC   C1G10962   5.960   0.785   9.624
   32POPC   C1H10963   5.959   0.683   9.508
   32POPC   C1I10964   6.082   0.727   9.427
   32POPC   C1J10965   6.082   0.763   9.300
   32POPC   C1K10966   5.970   0.780   9.207
   32POPC   C1L10967   5.998   0.786   9.052
   32POPC   C1M10968   6.038   0.643   9.011
   32POPC   C1N10969   6.047   0.617   8.859
   32POPC   C1O10970   6.112   0.727   8.769
   32POPC   C1P10971   6.134   0.690   8.630
   32POPC   C1Q10972   6.006   0.692   8.542
   32POPC   C1R10973   6.033   0.629   8.400
   32POPC    CE10974   5.352   0.626  10.269
   32POPC    OG10975   5.262   0.608  10.158
   32POPC   C2A10976   5.313   0.587  10.039
   32POPC    OH10977   5.432   0.567  10.014
   32POPC   C2B10978   5.206   0.588   9.935
   32POPC   C2C10979   5.265   0.641   9.801
   32POPC   C2D10980   5.161   0.666   9.695
   32POPC   C2E10981   5.216   0.715   9.553
   32POPC   C2F10982   5.112   0.737   9.440
   32POPC   C2G10983   5.179   0.783   9.305
   32POPC   C2H10984   5.073   0.822   9.201
   32POPC   C2I10985   5.143   0.868   9.070
   32POPC   C2J10986   5.045   0.931   8.971
   32POPC   C2K10987   5.131   0.991   8.861
   32POPC   C2L10988   5.045   1.045   8.746
   32POPC   C2M10989   5.118   1.152   8.663
   32POPC   C2N10990   5.043   1.173   8.534
   32POPC   C2O10991   5.105   1.284   8.448
   32POPC   C2P10992   5.024   1.311   8.321
   33POPC   CN110993   2.600   1.625  10.715
   33POPC   CN210994   2.429   1.756  10.607
   33POPC   CN310995   2.439   1.726  10.858
   33POPC   NTM10996   2.457   1.659  10.721
   33POPC    CA10997   2.369   1.527  10.719
   33POPC    CB10998   2.218   1.564  10.734
   33POPC    OA10999   2.180   1.650  10.625
   33POPC     P11000   2.030   1.682  10.600
   33POPC    OB11001   2.026   1.821  10.643
   33POPC    OC11002   1.944   1.584  10.665
   33POPC    OD11003   2.019   1.676  10.443
   33POPC    CC11004   2.097   1.597  10.357
   33POPC    CD11005   2.223   1.664  10.306
   33POPC    OE11006   2.184   1.764  10.214
   33POPC   C1A11007   2.278   1.855  10.188
   33POPC    OF11008   2.389   1.866  10.241
   33POPC   C1B11009   2.212   1.954  10.094
   33POPC   C1C11010   2.304   2.065  10.032
   33POPC   C1D11011   2.385   2.003   9.917
   33POPC   C1E11012   2.449   2.104   9.824
   33POPC   C1F11013   2.552   2.042   9.727
   33POPC   C1G11014   2.584   2.154   9.621
   33POPC   C1H11015   2.656   2.090   9.500
   33POPC   C1I11016   2.701   2.215   9.422
   33POPC   C1J11017   2.670   2.242   9.298
   33POPC   C1K11018   2.580   2.172   9.205
   33POPC   C1L11019   2.589   2.203   9.051
   33POPC   C1M11020   2.722   2.141   9.003
   33POPC   C1N11021   2.742   2.135   8.850
   33POPC   C1O11022   2.699   2.260   8.766
   33POPC   C1P11023   2.737   2.257   8.625
   33POPC   C1Q11024   2.648   2.165   8.537
   33POPC   C1R11025   2.710   2.149   8.392
   33POPC    CE11026   2.324   1.568  10.255
   33POPC    OG11027   2.275   1.492  10.143
   33POPC   C2A11028   2.320   1.522  10.024
   33POPC    OH11029   2.413   1.599   9.998
   33POPC   C2B11030   2.246   1.445   9.919
   33POPC   C2C11031   2.240   1.529   9.788
   33POPC   C2D11032   2.150   1.472   9.682
   33POPC   C2E11033   2.144   1.550   9.544
   33POPC   C2F11034   2.056   1.490   9.431
   33POPC   C2G11035   2.061   1.575   9.299
   33POPC   C2H11036   1.958   1.525   9.197
   33POPC   C2I11037   1.966   1.612   9.068
   33POPC   C2J11038   1.850   1.583   8.971
   33POPC   C2K11039   1.859   1.691   8.865
   33POPC   C2L11040   1.757   1.666   8.752
   33POPC   C2M11041   1.722   1.794   8.675
   33POPC   C2N11042   1.652   1.756   8.546
   33POPC   C2O11043   1.608   1.878   8.466
   33POPC   C2P11044   1.530   1.839   8.340
   34POPC   CN111045   1.088   5.323  10.734
   34POPC   CN211046   1.132   5.530  10.618
   34POPC   CN311047   1.128   5.514  10.870
   34POPC   NTM11048   1.063   5.469  10.739
   34POPC    CA11049   0.908   5.497  10.748
   34POPC    CB11050   0.883   5.651  10.762
   34POPC    OA11051   0.938   5.717  10.646
   34POPC     P11052   0.907   5.867  10.621
   34POPC    OB11053   1.036   5.926  10.653
   34POPC    OC11054   0.788   5.909  10.694
   34POPC    OD11055   0.885   5.871  10.465
   34POPC    CC11056   0.837   5.766  10.385
   34POPC    CD11057   0.945   5.676  10.327
   34POPC    OE11058   1.014   5.749  10.228
   34POPC   C1A11059   1.132   5.699  10.194
   34POPC    OF11060   1.190   5.602  10.245
   34POPC   C1B11061   1.190   5.796  10.093
   34POPC   C1C11062   1.323   5.753  10.022
   34POPC   C1D11063   1.289   5.652   9.911
   34POPC   C1E11064   1.400   5.631   9.810
   34POPC   C1F11065   1.377   5.510   9.717
   34POPC   C1G11066   1.483   5.523   9.603
   34POPC   C1H11067   1.444   5.428   9.487
   34POPC   C1I11068   1.570   5.435   9.399
   34POPC   C1J11069   1.574   5.471   9.273
   34POPC   C1K11070   1.467   5.524   9.187
   34POPC   C1L11071   1.488   5.524   9.030
   34POPC   C1M11072   1.479   5.377   8.986
   34POPC   C1N11073   1.470   5.353   8.834
   34POPC   C1O11074   1.561   5.440   8.741
   34POPC   C1P11075   1.563   5.401   8.600
   34POPC   C1Q11076   1.438   5.444   8.520
   34POPC   C1R11077   1.436   5.379   8.377
   34POPC    CE11078   0.892   5.545  10.283
   34POPC    OG11079   0.795   5.558  10.177
   34POPC   C2A11080   0.831   5.525  10.056
   34POPC    OH11081   0.937   5.470  10.024
   34POPC   C2B11082   0.724   5.561   9.958
   34POPC   C2C11083   0.789   5.596   9.821
   34POPC   C2D11084   0.692   5.654   9.721
   34POPC   C2E11085   0.752   5.688   9.577
   34POPC   C2F11086   0.653   5.743   9.471
   34POPC   C2G11087   0.723   5.769   9.332
   34POPC   C2H11088   0.628   5.841   9.235
   34POPC   C2I11089   0.702   5.865   9.099
   34POPC   C2J11090   0.623   5.958   9.007
   34POPC   C2K11091   0.717   5.991   8.892
   34POPC   C2L11092   0.646   6.072   8.783
   34POPC   C2M11093   0.743   6.153   8.696
   34POPC   C2N11094   0.671   6.199   8.571
   34POPC   C2O11095   0.759   6.287   8.482
   34POPC   C2P11096   0.684   6.340   8.361
   35POPC   CN111097   6.261   3.333  10.729
   35POPC   CN211098   6.069   3.265  10.598
   35POPC   CN311099   6.060   3.295  10.849
   35POPC   NTM11100   6.142   3.245  10.731
   35POPC    CA11101   6.185   3.095  10.761
   35POPC    CB11102   6.057   3.005  10.770
   35POPC    OA11103   5.986   3.011  10.646
   35POPC     P11104   5.869   2.913  10.618
   35POPC    OB11105   5.756   3.003  10.629
   35POPC    OC11106   5.878   2.796  10.706
   35POPC    OD11107   5.891   2.875  10.467
   35POPC    CC11108   6.014   2.872  10.399
   35POPC    CD11109   6.052   3.002  10.331
   35POPC    OE11110   5.967   3.019  10.220
   35POPC   C1A11111   5.962   3.143  10.172
   35POPC    OF11112   6.017   3.244  10.218
   35POPC   C1B11113   5.861   3.140  10.060
   35POPC   C1C11114   5.846   3.269   9.973
   35POPC   C1D11115   5.963   3.273   9.872
   35POPC   C1E11116   5.943   3.370   9.757
   35POPC   C1F11117   6.070   3.395   9.674
   35POPC   C1G11118   6.023   3.471   9.546
   35POPC   C1H11119   6.136   3.467   9.440
   35POPC   C1I11120   6.083   3.566   9.335
   35POPC   C1J11121   6.062   3.540   9.208
   35POPC   C1K11122   6.071   3.413   9.136
   35POPC   C1L11123   6.078   3.414   8.978
   35POPC   C1M11124   6.217   3.469   8.942
   35POPC   C1N11125   6.259   3.456   8.794
   35POPC   C1O11126   6.150   3.487   8.685
   35POPC   C1P11127   6.198   3.491   8.547
   35POPC   C1Q11128   6.224   3.352   8.484
   35POPC   C1R11129   6.298   3.365   8.345
   35POPC    CE11130   6.197   3.011  10.300
   35POPC    OG11131   6.240   2.908  10.209
   35POPC   C2A11132   6.265   2.942  10.085
   35POPC    OH11133   6.271   3.057  10.041
   35POPC   C2B11134   6.291   2.820  10.002
   35POPC   C2C11135   6.245   2.847   9.856
   35POPC   C2D11136   6.247   2.724   9.768
   35POPC   C2E11137   6.206   2.747   9.616
   35POPC   C2F11138   6.211   2.623   9.522
   35POPC   C2G11139   6.171   2.658   9.373
   35POPC   C2H11140   6.159   2.532   9.288
   35POPC   C2I11141   6.118   2.572   9.142
   35POPC   C2J11142   6.081   2.450   9.058
   35POPC   C2K11143   6.022   2.506   8.929
   35POPC   C2L11144   5.992   2.394   8.828
   35POPC   C2M11145   5.886   2.434   8.725
   35POPC   C2N11146   5.890   2.336   8.610
   35POPC   C2O11147   5.782   2.365   8.506
   35POPC   C2P11148   5.780   2.261   8.394
   36POPC   CN111149   4.434   3.656  10.755
   36POPC   CN211150   4.438   3.471  10.600
   36POPC   CN311151   4.388   3.442  10.847
   36POPC   NTM11152   4.473   3.514  10.742
   36POPC    CA11153   4.625   3.496  10.781
   36POPC    CB11154   4.663   3.343  10.775
   36POPC    OA11155   4.640   3.296  10.641
   36POPC     P11156   4.692   3.155  10.600
   36POPC    OB11157   4.567   3.082  10.593
   36POPC    OC11158   4.797   3.109  10.690
   36POPC    OD11159   4.746   3.180  10.454
   36POPC    CC11160   4.798   3.300  10.404
   36POPC    CD11161   4.696   3.391  10.339
   36POPC    OE11162   4.657   3.333  10.217
   36POPC   C1A11163   4.543   3.380  10.165
   36POPC    OF11164   4.466   3.462  10.217
   36POPC   C1B11165   4.518   3.299  10.040
   36POPC   C1C11166   4.399   3.344   9.950
   36POPC   C1D11167   4.444   3.465   9.866
   36POPC   C1E11168   4.355   3.496   9.748
   36POPC   C1F11169   4.384   3.633   9.682
   36POPC   C1G11170   4.305   3.633   9.547
   36POPC   C1H11171   4.357   3.749   9.459
   36POPC   C1I11172   4.254   3.750   9.345
   36POPC   C1J11173   4.280   3.736   9.217
   36POPC   C1K11174   4.407   3.707   9.150
   36POPC   C1L11175   4.420   3.733   8.995
   36POPC   C1M11176   4.421   3.885   8.977
   36POPC   C1N11177   4.459   3.937   8.837
   36POPC   C1O11178   4.399   3.862   8.713
   36POPC   C1P11179   4.422   3.925   8.583
   36POPC   C1Q11180   4.565   3.905   8.528
   36POPC   C1R11181   4.589   3.995   8.400
   36POPC    CE11182   4.742   3.532  10.329
   36POPC    OG11183   4.859   3.545  10.247
   36POPC   C2A11184   4.846   3.596  10.127
   36POPC    OH11185   4.744   3.648  10.082
   36POPC   C2B11186   4.975   3.586  10.051
   36POPC   C2C11187   4.944   3.571   9.899
   36POPC   C2D11188   5.064   3.538   9.816
   36POPC   C2E11189   5.040   3.527   9.658
   36POPC   C2F11190   5.163   3.499   9.569
   36POPC   C2G11191   5.127   3.493   9.416
   36POPC   C2H11192   5.247   3.445   9.332
   36POPC   C2I11193   5.205   3.441   9.182
   36POPC   C2J11194   5.312   3.371   9.095
   36POPC   C2K11195   5.247   3.353   8.959
   36POPC   C2L11196   5.348   3.298   8.857
   36POPC   C2M11197   5.280   3.227   8.739
   36POPC   C2N11198   5.381   3.209   8.628
   36POPC   C2O11199   5.323   3.132   8.509
   36POPC   C2P11200   5.427   3.107   8.400
   37POPC   CN111201   0.301   2.529  10.716
   37POPC   CN211202   0.382   2.333  10.601
   37POPC   CN311203   0.369   2.348  10.853
   37POPC   NTM11204   0.402   2.422  10.723
   37POPC    CA11205   0.547   2.484  10.737
   37POPC    CB11206   0.652   2.369  10.753
   37POPC    OA11207   0.646   2.284  10.637
   37POPC     P11208   0.756   2.176  10.614
   37POPC    OB11209   0.680   2.056  10.644
   37POPC    OC11210   0.876   2.207  10.691
   37POPC    OD11211   0.781   2.186  10.460
   37POPC    CC11212   0.765   2.300  10.379
   37POPC    CD11213   0.628   2.316  10.318
   37POPC    OE11214   0.613   2.217  10.218
   37POPC   C1A11215   0.488   2.194  10.179
   37POPC    OF11216   0.385   2.242  10.228
   37POPC   C1B11217   0.496   2.081  10.078
   37POPC   C1C11218   0.364   2.043  10.004
   37POPC   C1D11219   0.339   2.147   9.892
   37POPC   C1E11220   0.238   2.103   9.788
   37POPC   C1F11221   0.193   2.217   9.694
   37POPC   C1G11222   0.115   2.148   9.578
   37POPC   C1H11223   0.099   2.249   9.461
   37POPC   C1I11224   0.000   2.174   9.370
   37POPC   C1J11225   0.021   2.142   9.244
   37POPC   C1K11226   0.141   2.157   9.162
   37POPC   C1L11227   0.129   2.146   9.005
   37POPC   C1M11228   0.056   2.273   8.959
   37POPC   C1N11229   0.054   2.299   8.807
   37POPC   C1O11230   0.029   2.177   8.712
   37POPC   C1P11231   0.010   2.208   8.571
   37POPC   C1Q11232   0.141   2.242   8.495
   37POPC   C1R11233   0.110   2.298   8.351
   37POPC    CE11234   0.600   2.454  10.273
   37POPC    OG11235   0.691   2.497  10.170
   37POPC   C2A11236   0.646   2.505  10.047
   37POPC    OH11237   0.529   2.493  10.011
   37POPC   C2B11238   0.758   2.535   9.953
   37POPC   C2C11239   0.728   2.470   9.814
   37POPC   C2D11240   0.843   2.476   9.718
   37POPC   C2E11241   0.816   2.415   9.572
   37POPC   C2F11242   0.932   2.424   9.469
   37POPC   C2G11243   0.892   2.365   9.329
   37POPC   C2H11244   1.014   2.356   9.236
   37POPC   C2I11245   0.969   2.296   9.099
   37POPC   C2J11246   1.089   2.263   9.009
   37POPC   C2K11247   1.032   2.184   8.892
   37POPC   C2L11248   1.140   2.156   8.786
   37POPC   C2M11249   1.106   2.036   8.698
   37POPC   C2N11250   1.195   2.037   8.576
   37POPC   C2O11251   1.173   1.916   8.486
   37POPC   C2P11252   1.269   1.913   8.368
   38POPC   CN111253   1.260   4.652  10.730
   38POPC   CN211254   1.248   4.454  10.592
   38POPC   CN311255   1.209   4.448  10.842
   38POPC   NTM11256   1.292   4.508  10.727
   38POPC    CA11257   1.445   4.485  10.761
   38POPC    CB11258   1.476   4.331  10.765
   38POPC    OA11259   1.444   4.273  10.638
   38POPC     P11260   1.487   4.127  10.606
   38POPC    OB11261   1.359   4.061  10.611
   38POPC    OC11262   1.595   4.084  10.695
   38POPC    OD11263   1.535   4.138  10.457
   38POPC    CC11264   1.590   4.251  10.394
   38POPC    CD11265   1.489   4.341  10.326
   38POPC    OE11266   1.441   4.275  10.212
   38POPC   C1A11267   1.327   4.323  10.162
   38POPC    OF11268   1.257   4.412  10.210
   38POPC   C1B11269   1.292   4.233  10.045
   38POPC   C1C11270   1.171   4.276   9.957
   38POPC   C1D11271   1.217   4.387   9.861
   38POPC   C1E11272   1.123   4.413   9.745
   38POPC   C1F11273   1.155   4.542   9.667
   38POPC   C1G11274   1.070   4.535   9.536
   38POPC   C1H11275   1.122   4.641   9.436
   38POPC   C1I11276   1.013   4.637   9.327
   38POPC   C1J11277   1.032   4.611   9.200
   38POPC   C1K11278   1.154   4.570   9.129
   38POPC   C1L11279   1.160   4.583   8.972
   38POPC   C1M11280   1.168   4.734   8.942
   38POPC   C1N11281   1.200   4.772   8.796
   38POPC   C1O11282   1.131   4.690   8.682
   38POPC   C1P11283   1.150   4.740   8.546
   38POPC   C1Q11284   1.289   4.709   8.486
   38POPC   C1R11285   1.311   4.787   8.350
   38POPC    CE11286   1.540   4.478  10.302
   38POPC    OG11287   1.654   4.478  10.214
   38POPC   C2A11288   1.637   4.520  10.091
   38POPC    OH11289   1.535   4.574  10.046
   38POPC   C2B11290   1.761   4.497  10.010
   38POPC   C2C11291   1.722   4.472   9.862
   38POPC   C2D11292   1.836   4.426   9.776
   38POPC   C2E11293   1.804   4.404   9.621
   38POPC   C2F11294   1.921   4.362   9.529
   38POPC   C2G11295   1.877   4.345   9.379
   38POPC   C2H11296   1.990   4.285   9.294
   38POPC   C2I11297   1.941   4.270   9.146
   38POPC   C2J11298   2.039   4.189   9.061
   38POPC   C2K11299   1.968   4.163   8.930
   38POPC   C2L11300   2.061   4.095   8.828
   38POPC   C2M11301   1.984   4.018   8.720
   38POPC   C2N11302   2.078   3.985   8.607
   38POPC   C2O11303   2.010   3.902   8.497
   38POPC   C2P11304   2.108   3.863   8.387
   39POPC   CN111305   3.822   2.432  10.717
   39POPC   CN211306   3.723   2.240  10.609
   39POPC   CN311307   3.754   2.255  10.859
   39POPC   NTM11308   3.815   2.285  10.722
   39POPC    CA11309   3.960   2.222  10.719
   39POPC    CB11310   3.951   2.066  10.733
   39POPC    OA11311   3.872   2.014  10.625
   39POPC     P11312   3.867   1.861  10.600
   39POPC    OB11313   3.732   1.832  10.644
   39POPC    OC11314   3.979   1.793  10.664
   39POPC    OD11315   3.873   1.851  10.443
   39POPC    CC11316   3.936   1.942  10.357
   39POPC    CD11317   3.847   2.054  10.307
   39POPC    OE11318   3.754   1.999  10.215
   39POPC   C1A11319   3.648   2.074  10.190
   39POPC    OF11320   3.618   2.181  10.244
   39POPC   C1B11321   3.561   1.992  10.097
   39POPC   C1C11322   3.435   2.063  10.037
   39POPC   C1D11323   3.480   2.154   9.921
   39POPC   C1E11324   3.369   2.199   9.830
   39POPC   C1F11325   3.410   2.312   9.732
   39POPC   C1G11326   3.293   2.323   9.628
   39POPC   C1H11327   3.342   2.406   9.507
   39POPC   C1I11328   3.210   2.427   9.430
   39POPC   C1J11329   3.187   2.392   9.306
   39POPC   C1K11330   3.271   2.317   9.212
   39POPC   C1L11331   3.237   2.321   9.058
   39POPC   C1M11332   3.274   2.462   9.010
   39POPC   C1N11333   3.275   2.484   8.857
   39POPC   C1O11334   3.159   2.419   8.774
   39POPC   C1P11335   3.153   2.457   8.634
   39POPC   C1Q11336   3.258   2.386   8.544
   39POPC   C1R11337   3.261   2.449   8.399
   39POPC    CE11338   3.923   2.171  10.255
   39POPC    OG11339   4.005   2.136  10.142
   39POPC   C2A11340   3.966   2.176  10.023
   39POPC    OH11341   3.873   2.253   9.999
   39POPC   C2B11342   4.054   2.116   9.917
   39POPC   C2C11343   3.971   2.096   9.787
   39POPC   C2D11344   4.042   2.017   9.681
   39POPC   C2E11345   3.964   1.998   9.543
   39POPC   C2F11346   4.038   1.922   9.429
   39POPC   C2G11347   3.952   1.912   9.298
   39POPC   C2H11348   4.019   1.820   9.195
   39POPC   C2I11349   3.930   1.813   9.067
   39POPC   C2J11350   3.978   1.704   8.970
   39POPC   C2K11351   3.869   1.693   8.864
   39POPC   C2L11352   3.910   1.598   8.751
   39POPC   C2M11353   3.790   1.541   8.675
   39POPC   C2N11354   3.839   1.479   8.546
   39POPC   C2O11355   3.725   1.413   8.467
   39POPC   C2P11356   3.776   1.344   8.341
   40POPC   CN111357   0.199   5.390  10.766
   40POPC   CN211358   0.378   5.464  10.622
   40POPC   CN311359   0.398   5.461  10.874
   40POPC   NTM11360   0.307   5.490  10.755
   40POPC    CA11361   0.249   5.636  10.772
   40POPC    CB11362   0.365   5.740  10.768
   40POPC    OA11363   0.433   5.729  10.642
   40POPC     P11364   0.538   5.837  10.600
   40POPC    OB11365   0.660   5.761  10.615
   40POPC    OC11366   0.519   5.960  10.677
   40POPC    OD11367   0.507   5.857  10.448
   40POPC    CC11368   0.383   5.840  10.384
   40POPC    CD11369   0.357   5.700  10.330
   40POPC    OE11370   0.441   5.681  10.218
   40POPC   C1A11371   0.458   5.554  10.182
   40POPC    OF11372   0.416   5.453  10.240
   40POPC   C1B11373   0.555   5.558  10.066
   40POPC   C1C11374   0.581   5.423   9.991
   40POPC   C1D11375   0.463   5.396   9.896
   40POPC   C1E11376   0.491   5.291   9.791
   40POPC   C1F11377   0.364   5.244   9.715
   40POPC   C1G11378   0.416   5.161   9.593
   40POPC   C1H11379   0.300   5.142   9.492
   40POPC   C1I11380   0.361   5.040   9.395
   40POPC   C1J11381   0.375   5.056   9.266
   40POPC   C1K11382   0.350   5.173   9.182
   40POPC   C1L11383   0.338   5.155   9.025
   40POPC   C1M11384   0.205   5.083   9.000
   40POPC   C1N11385   0.158   5.076   8.853
   40POPC   C1O11386   0.266   5.046   8.743
   40POPC   C1P11387   0.215   5.023   8.609
   40POPC   C1Q11388   0.172   5.152   8.534
   40POPC   C1R11389   0.096   5.117   8.400
   40POPC    CE11390   0.213   5.673  10.307
   40POPC    OG11391   0.157   5.761  10.207
   40POPC   C2A11392   0.132   5.712  10.089
   40POPC    OH11393   0.138   5.593  10.056
   40POPC   C2B11394   0.090   5.821   9.995
   40POPC   C2C11395   0.134   5.785   9.850
   40POPC   C2D11396   0.117   5.897   9.752
   40POPC   C2E11397   0.155   5.865   9.601
   40POPC   C2F11398   0.133   5.977   9.496
   40POPC   C2G11399   0.172   5.932   9.350
   40POPC   C2H11400   0.168   6.050   9.252
   40POPC   C2I11401   0.208   6.000   9.110
   40POPC   C2J11402   0.230   6.117   9.013
   40POPC   C2K11403   0.291   6.055   8.888
   40POPC   C2L11404   0.304   6.159   8.775
   40POPC   C2M11405   0.411   6.121   8.672
   40POPC   C2N11406   0.394   6.206   8.549
   40POPC   C2O11407   0.501   6.179   8.443
   40POPC   C2P11408   0.488   6.270   8.322
   41POPC   CN111409   2.375   5.388  10.685
   41POPC   CN211410   2.156   5.429  10.594
   41POPC   CN311411   2.197   5.397  10.841
   41POPC   NTM11412   2.233   5.352  10.700
   41POPC    CA11413   2.216   5.194  10.693
   41POPC    CB11414   2.065   5.157  10.717
   41POPC    OA11415   1.985   5.220  10.615
   41POPC     P11416   1.835   5.181  10.600
   41POPC    OB11417   1.772   5.300  10.652
   41POPC    OC11418   1.809   5.051  10.662
   41POPC    OD11419   1.818   5.176  10.443
   41POPC    CC11420   1.917   5.145  10.349
   41POPC    CD11421   1.994   5.265  10.297
   41POPC    OE11422   1.908   5.339  10.214
   41POPC   C1A11423   1.947   5.464  10.189
   41POPC    OF11424   2.044   5.523  10.238
   41POPC   C1B11425   1.837   5.526  10.105
   41POPC   C1C11426   1.864   5.668  10.047
   41POPC   C1D11427   1.956   5.655   9.925
   41POPC   C1E11428   1.961   5.778   9.836
   41POPC   C1F11429   2.073   5.774   9.730
   41POPC   C1G11430   2.043   5.892   9.631
   41POPC   C1H11431   2.128   5.873   9.503
   41POPC   C1I11432   2.105   6.008   9.432
   41POPC   C1J11433   2.056   6.023   9.311
   41POPC   C1K11434   2.002   5.923   9.218
   41POPC   C1L11435   1.985   5.961   9.066
   41POPC   C1M11436   2.128   5.968   9.008
   41POPC   C1N11437   2.138   5.979   8.854
   41POPC   C1O11438   2.037   6.073   8.780
   41POPC   C1P11439   2.061   6.094   8.638
   41POPC   C1Q11440   2.019   5.975   8.548
   41POPC   C1R11441   2.070   5.994   8.400
   41POPC    CE11442   2.124   5.228  10.235
   41POPC    OG11443   2.107   5.143  10.120
   41POPC   C2A11444   2.125   5.195  10.002
   41POPC    OH11445   2.170   5.307   9.977
   41POPC   C2B11446   2.087   5.096   9.895
   41POPC   C2C11447   2.035   5.174   9.770
   41POPC   C2D11448   1.974   5.085   9.666
   41POPC   C2E11449   1.923   5.158   9.533
   41POPC   C2F11450   1.864   5.068   9.421
   41POPC   C2G11451   1.820   5.151   9.294
   41POPC   C2H11452   1.745   5.063   9.193
   41POPC   C2I11453   1.703   5.149   9.070
   41POPC   C2J11454   1.607   5.075   8.978
   41POPC   C2K11455   1.558   5.178   8.878
   41POPC   C2L11456   1.471   5.114   8.769
   41POPC   C2M11457   1.376   5.214   8.702
   41POPC   C2N11458   1.323   5.153   8.574
   41POPC   C2O11459   1.222   5.244   8.504
   41POPC   C2P11460   1.161   5.179   8.380
   42POPC   CN111461   3.155   1.582  10.761
   42POPC   CN211462   3.070   1.769  10.634
   42POPC   CN311463   3.071   1.765  10.887
   42POPC   NTM11464   3.049   1.684  10.759
   42POPC    CA11465   2.906   1.615  10.769
   42POPC    CB11466   2.795   1.725  10.775
   42POPC    OA11467   2.802   1.805  10.656
   42POPC     P11468   2.688   1.906  10.624
   42POPC    OB11469   2.756   2.031  10.651
   42POPC    OC11470   2.566   1.872  10.697
   42POPC    OD11471   2.671   1.889  10.469
   42POPC    CC11472   2.696   1.773  10.394
   42POPC    CD11473   2.837   1.762  10.339
   42POPC    OE11474   2.851   1.857  10.236
   42POPC   C1A11475   2.977   1.885  10.203
   42POPC    OF11476   3.080   1.845  10.258
   42POPC   C1B11477   2.968   1.993  10.097
   42POPC   C1C11478   3.101   2.035  10.027
   42POPC   C1D11479   3.136   1.929   9.921
   42POPC   C1E11480   3.240   1.973   9.820
   42POPC   C1F11481   3.295   1.858   9.733
   42POPC   C1G11482   3.375   1.926   9.617
   42POPC   C1H11483   3.402   1.822   9.506
   42POPC   C1I11484   3.500   1.899   9.416
   42POPC   C1J11485   3.484   1.924   9.288
   42POPC   C1K11486   3.369   1.900   9.201
   42POPC   C1L11487   3.388   1.905   9.045
   42POPC   C1M11488   3.469   1.780   9.007
   42POPC   C1N11489   3.480   1.748   8.857
   42POPC   C1O11490   3.503   1.868   8.758
   42POPC   C1P11491   3.530   1.832   8.620
   42POPC   C1Q11492   3.405   1.788   8.540
   42POPC   C1R11493   3.445   1.728   8.399
   42POPC    CE11494   2.874   1.623  10.302
   42POPC    OG11495   2.790   1.571  10.197
   42POPC   C2A11496   2.841   1.561  10.077
   42POPC    OH11497   2.959   1.578  10.046
   42POPC   C2B11498   2.735   1.521   9.979
   42POPC   C2C11499   2.769   1.582   9.839
   42POPC   C2D11500   2.658   1.567   9.738
   42POPC   C2E11501   2.689   1.622   9.592
   42POPC   C2F11502   2.579   1.603   9.484
   42POPC   C2G11503   2.622   1.659   9.343
   42POPC   C2H11504   2.505   1.657   9.244
   42POPC   C2I11505   2.553   1.714   9.107
   42POPC   C2J11506   2.435   1.737   9.011
   42POPC   C2K11507   2.494   1.814   8.893
   42POPC   C2L11508   2.390   1.832   8.781
   42POPC   C2M11509   2.422   1.951   8.690
   42POPC   C2N11510   2.339   1.940   8.564
   42POPC   C2O11511   2.359   2.058   8.470
   42POPC   C2P11512   2.269   2.051   8.347
   43POPC   CN111513   4.008   4.593  10.678
   43POPC   CN211514   4.216   4.626  10.560
   43POPC   CN311515   4.205   4.591  10.811
   43POPC   NTM11516   4.141   4.658  10.689
   43POPC    CA11517   4.124   4.812  10.719
   43POPC    CB11518   4.265   4.877  10.738
   43POPC    OA11519   4.341   4.859  10.618
   43POPC     P11520   4.476   4.935  10.600
   43POPC    OB11521   4.570   4.825  10.615
   43POPC    OC11522   4.484   5.050  10.689
   43POPC    OD11523   4.471   4.978  10.449
   43POPC    CC11524   4.355   5.004  10.374
   43POPC    CD11525   4.298   4.885  10.300
   43POPC    OE11526   4.385   4.853  10.194
   43POPC   C1A11527   4.370   4.731  10.143
   43POPC    OF11528   4.295   4.642  10.184
   43POPC   C1B11529   4.477   4.717  10.038
   43POPC   C1C11530   4.472   4.588   9.949
   43POPC   C1D11531   4.364   4.607   9.841
   43POPC   C1E11532   4.372   4.509   9.726
   43POPC   C1F11533   4.248   4.509   9.634
   43POPC   C1G11534   4.288   4.427   9.507
   43POPC   C1H11535   4.184   4.453   9.396
   43POPC   C1I11536   4.224   4.347   9.292
   43POPC   C1J11537   4.258   4.371   9.167
   43POPC   C1K11538   4.276   4.498   9.097
   43POPC   C1L11539   4.279   4.500   8.939
   43POPC   C1M11540   4.135   4.473   8.894
   43POPC   C1N11541   4.106   4.495   8.744
   43POPC   C1O11542   4.212   4.445   8.641
   43POPC   C1P11543   4.173   4.451   8.501
   43POPC   C1Q11544   4.177   4.594   8.439
   43POPC   C1R11545   4.111   4.596   8.296
   43POPC    CE11546   4.156   4.903  10.261
   43POPC    OG11547   4.139   5.013  10.170
   43POPC   C2A11548   4.115   4.986  10.044
   43POPC    OH11549   4.091   4.874   9.997
   43POPC   C2B11550   4.117   5.111   9.962
   43POPC   C2C11551   4.166   5.078   9.818
   43POPC   C2D11552   4.193   5.200   9.734
   43POPC   C2E11553   4.238   5.172   9.583
   43POPC   C2F11554   4.261   5.295   9.492
   43POPC   C2G11555   4.303   5.255   9.346
   43POPC   C2H11556   4.344   5.379   9.264
   43POPC   C2I11557   4.385   5.333   9.120
   43POPC   C2J11558   4.450   5.448   9.041
   43POPC   C2K11559   4.505   5.383   8.915
   43POPC   C2L11560   4.560   5.488   8.818
   43POPC   C2M11561   4.663   5.431   8.720
   43POPC   C2N11562   4.685   5.529   8.608
   43POPC   C2O11563   4.792   5.482   8.509
   43POPC   C2P11564   4.819   5.585   8.400
   44POPC   CN111565   0.663   0.579  10.745
   44POPC   CN211566   0.696   0.782  10.618
   44POPC   CN311567   0.704   0.776  10.871
   44POPC   NTM11568   0.635   0.724  10.745
   44POPC    CA11569   0.479   0.749  10.761
   44POPC    CB11570   0.451   0.903  10.770
   44POPC    OA11571   0.499   0.966  10.649
   44POPC     P11572   0.462   1.114  10.619
   44POPC    OB11573   0.590   1.177  10.642
   44POPC    OC11574   0.346   1.156  10.697
   44POPC    OD11575   0.432   1.111  10.465
   44POPC    CC11576   0.382   1.002  10.392
   44POPC    CD11577   0.489   0.912  10.332
   44POPC    OE11578   0.551   0.982  10.227
   44POPC   C1A11579   0.669   0.933  10.188
   44POPC    OF11580   0.732   0.841  10.240
   44POPC   C1B11581   0.719   1.028  10.081
   44POPC   C1C11582   0.849   0.985  10.005
   44POPC   C1D11583   0.812   0.879   9.900
   44POPC   C1E11584   0.918   0.856   9.794
   44POPC   C1F11585   0.893   0.731   9.707
   44POPC   C1G11586   0.994   0.742   9.587
   44POPC   C1H11587   0.951   0.642   9.477
   44POPC   C1I11588   1.072   0.648   9.382
   44POPC   C1J11589   1.068   0.679   9.255
   44POPC   C1K11590   0.956   0.726   9.172
   44POPC   C1L11591   0.968   0.720   9.015
   44POPC   C1M11592   0.962   0.571   8.978
   44POPC   C1N11593   0.946   0.540   8.827
   44POPC   C1O11594   1.029   0.625   8.726
   44POPC   C1P11595   1.025   0.581   8.587
   44POPC   C1Q11596   0.894   0.618   8.512
   44POPC   C1R11597   0.887   0.546   8.372
   44POPC    CE11598   0.438   0.777  10.296
   44POPC    OG11599   0.336   0.784  10.195
   44POPC   C2A11600   0.366   0.747  10.073
   44POPC    OH11601   0.471   0.693  10.038
   44POPC   C2B11602   0.253   0.776   9.980
   44POPC   C2C11603   0.310   0.807   9.838
   44POPC   C2D11604   0.206   0.859   9.742
   44POPC   C2E11605   0.257   0.887   9.593
   44POPC   C2F11606   0.152   0.936   9.490
   44POPC   C2G11607   0.214   0.957   9.347
   44POPC   C2H11608   0.113   1.024   9.252
   44POPC   C2I11609   0.179   1.044   9.112
   44POPC   C2J11610   0.093   1.131   9.020
   44POPC   C2K11611   0.180   1.161   8.899
   44POPC   C2L11612   0.100   1.235   8.790
   44POPC   C2M11613   0.191   1.315   8.696
   44POPC   C2N11614   0.111   1.355   8.573
   44POPC   C2O11615   0.192   1.440   8.476
   44POPC   C2P11616   0.109   1.487   8.357
   45POPC   CN111617   4.771   5.270  10.760
   45POPC   CN211618   4.936   5.357  10.606
   45POPC   CN311619   4.980   5.333  10.854
   45POPC   NTM11620   4.878   5.371  10.746
   45POPC    CA11621   4.822   5.515  10.780
   45POPC    CB11622   4.938   5.620  10.773
   45POPC    OA11623   4.994   5.619  10.641
   45POPC     P11624   5.094   5.730  10.598
   45POPC    OB11625   5.217   5.654  10.595
   45POPC    OC11626   5.083   5.847  10.685
   45POPC    OD11627   5.049   5.762  10.451
   45POPC    CC11628   4.919   5.749  10.399
   45POPC    CD11629   4.888   5.614  10.337
   45POPC    OE11630   4.961   5.604  10.216
   45POPC   C1A11631   4.973   5.481  10.168
   45POPC    OF11632   4.937   5.376  10.222
   45POPC   C1B11633   5.059   5.494  10.044
   45POPC   C1C11634   5.078   5.365   9.957
   45POPC   C1D11635   4.951   5.345   9.872
   45POPC   C1E11636   4.968   5.249   9.756
   45POPC   C1F11637   4.835   5.208   9.689
   45POPC   C1G11638   4.874   5.135   9.557
   45POPC   C1H11639   4.749   5.123   9.467
   45POPC   C1I11640   4.800   5.029   9.356
   45POPC   C1J11641   4.802   5.055   9.228
   45POPC   C1K11642   4.769   5.179   9.156
   45POPC   C1L11643   4.743   5.173   9.001
   45POPC   C1M11644   4.608   5.102   8.983
   45POPC   C1N11645   4.547   5.106   8.841
   45POPC   C1O11646   4.643   5.086   8.719
   45POPC   C1P11647   4.580   5.073   8.589
   45POPC   C1Q11648   4.530   5.207   8.529
   45POPC   C1R11649   4.442   5.182   8.400
   45POPC    CE11650   4.742   5.588  10.325
   45POPC    OG11651   4.677   5.683  10.238
   45POPC   C2A11652   4.641   5.644  10.119
   45POPC    OH11653   4.643   5.528  10.077
   45POPC   C2B11654   4.590   5.760  10.039
   45POPC   C2C11655   4.621   5.736   9.888
   45POPC   C2D11656   4.594   5.855   9.801
   45POPC   C2E11657   4.618   5.835   9.644
   45POPC   C2F11658   4.586   5.954   9.551
   45POPC   C2G11659   4.611   5.921   9.399
   45POPC   C2H11660   4.598   6.047   9.312
   45POPC   C2I11661   4.624   6.008   9.163
   45POPC   C2J11662   4.637   6.132   9.073
   45POPC   C2K11663   4.686   6.080   8.939
   45POPC   C2L11664   4.688   6.193   8.834
   45POPC   C2M11665   4.785   6.163   8.719
   45POPC   C2N11666   4.756   6.257   8.604
   45POPC   C2O11667   4.853   6.239   8.487
   45POPC   C2P11668   4.828   6.340   8.376
   46POPC   CN111669   3.988   5.265  10.671
   46POPC   CN211670   4.214   5.271  10.586
   46POPC   CN311671   4.160   5.294  10.833
   46POPC   NTM11672   4.119   5.331  10.690
   46POPC    CA11673   4.103   5.488  10.682
   46POPC    CB11674   4.242   5.556  10.710
   46POPC    OA11675   4.336   5.511  10.611
   46POPC     P11676   4.474   5.581  10.600
   46POPC    OB11677   4.560   5.478  10.654
   46POPC    OC11678   4.472   5.713  10.661
   46POPC    OD11679   4.495   5.589  10.444
   46POPC    CC11680   4.394   5.598  10.347
   46POPC    CD11681   4.346   5.465  10.293
   46POPC    OE11682   4.448   5.410  10.213
   46POPC   C1A11683   4.437   5.280  10.188
   46POPC    OF11684   4.353   5.202  10.235
   46POPC   C1B11685   4.560   5.243  10.108
   46POPC   C1C11686   4.565   5.098  10.050
   46POPC   C1D11687   4.476   5.091   9.925
   46POPC   C1E11688   4.500   4.970   9.837
   46POPC   C1F11689   4.392   4.950   9.728
   46POPC   C1G11690   4.450   4.841   9.631
   46POPC   C1H11691   4.366   4.841   9.500
   46POPC   C1I11692   4.419   4.715   9.431
   46POPC   C1J11693   4.474   4.710   9.311
   46POPC   C1K11694   4.508   4.819   9.219
   46POPC   C1L11695   4.537   4.786   9.068
   46POPC   C1M11696   4.401   4.748   9.006
   46POPC   C1N11697   4.398   4.736   8.852
   46POPC   C1O11698   4.518   4.665   8.782
   46POPC   C1P11699   4.503   4.639   8.639
   46POPC   C1Q11700   4.522   4.764   8.549
   46POPC   C1R11701   4.480   4.734   8.400
   46POPC    CE11702   4.213   5.474  10.228
   46POPC    OG11703   4.215   5.561  10.112
   46POPC   C2A11704   4.211   5.506   9.994
   46POPC    OH11705   4.192   5.387   9.969
   46POPC   C2B11706   4.231   5.610   9.888
   46POPC   C2C11707   4.302   5.545   9.765
   46POPC   C2D11708   4.346   5.645   9.661
   46POPC   C2E11709   4.415   5.584   9.531
   46POPC   C2F11710   4.457   5.684   9.420
   46POPC   C2G11711   4.521   5.613   9.295
   46POPC   C2H11712   4.579   5.714   9.196
   46POPC   C2I11713   4.642   5.638   9.075
   46POPC   C2J11714   4.723   5.731   8.984
   46POPC   C2K11715   4.795   5.640   8.887
   46POPC   C2L11716   4.870   5.721   8.779
   46POPC   C2M11717   4.985   5.643   8.716
   46POPC   C2N11718   5.029   5.714   8.589
   46POPC   C2O11719   5.149   5.646   8.523
   46POPC   C2P11720   5.198   5.722   8.400
   47POPC   CN111721   4.790   0.509  10.700
   47POPC   CN211722   4.613   0.634  10.594
   47POPC   CN311723   4.631   0.609  10.845
   47POPC   NTM11724   4.646   0.540  10.710
   47POPC    CA11725   4.561   0.407  10.713
   47POPC    CB11726   4.409   0.442  10.731
   47POPC    OA11727   4.367   0.524  10.621
   47POPC     P11728   4.215   0.553  10.600
   47POPC    OB11729   4.210   0.692  10.640
   47POPC    OC11730   4.133   0.455  10.670
   47POPC    OD11731   4.200   0.543  10.444
   47POPC    CC11732   4.278   0.464  10.358
   47POPC    CD11733   4.401   0.533  10.302
   47POPC    OE11734   4.358   0.630  10.209
   47POPC   C1A11735   4.448   0.723  10.178
   47POPC    OF11736   4.561   0.737  10.228
   47POPC   C1B11737   4.379   0.819  10.084
   47POPC   C1C11738   4.467   0.929  10.018
   47POPC   C1D11739   4.545   0.867   9.901
   47POPC   C1E11740   4.605   0.967   9.805
   47POPC   C1F11741   4.707   0.906   9.706
   47POPC   C1G11742   4.733   1.015   9.598
   47POPC   C1H11743   4.803   0.951   9.476
   47POPC   C1I11744   4.843   1.075   9.394
   47POPC   C1J11745   4.808   1.099   9.270
   47POPC   C1K11746   4.718   1.026   9.182
   47POPC   C1L11747   4.722   1.054   9.026
   47POPC   C1M11748   4.854   0.993   8.976
   47POPC   C1N11749   4.871   0.985   8.823
   47POPC   C1O11750   4.823   1.107   8.737
   47POPC   C1P11751   4.857   1.102   8.595
   47POPC   C1Q11752   4.767   1.007   8.512
   47POPC   C1R11753   4.825   0.989   8.366
   47POPC    CE11754   4.502   0.438  10.250
   47POPC    OG11755   4.451   0.359  10.140
   47POPC   C2A11756   4.493   0.387  10.019
   47POPC    OH11757   4.583   0.466   9.990
   47POPC   C2B11758   4.417   0.307   9.918
   47POPC   C2C11759   4.406   0.388   9.785
   47POPC   C2D11760   4.314   0.327   9.684
   47POPC   C2E11761   4.303   0.403   9.544
   47POPC   C2F11762   4.213   0.339   9.435
   47POPC   C2G11763   4.213   0.421   9.301
   47POPC   C2H11764   4.108   0.367   9.203
   47POPC   C2I11765   4.111   0.452   9.072
   47POPC   C2J11766   3.993   0.419   8.979
   47POPC   C2K11767   3.997   0.525   8.870
   47POPC   C2L11768   3.892   0.496   8.761
   47POPC   C2M11769   3.853   0.621   8.682
   47POPC   C2N11770   3.780   0.579   8.557
   47POPC   C2O11771   3.731   0.699   8.475
   47POPC   C2P11772   3.650   0.657   8.353
   48POPC   CN111773   0.590   4.587  10.766
   48POPC   CN211774   0.778   4.606  10.616
   48POPC   CN311775   0.805   4.584  10.867
   48POPC   NTM11776   0.724   4.647  10.753
   48POPC    CA11777   0.718   4.803  10.778
   48POPC    CB11778   0.862   4.863  10.772
   48POPC    OA11779   0.918   4.837  10.643
   48POPC     P11780   1.051   4.906  10.600
   48POPC    OB11781   1.142   4.794  10.606
   48POPC    OC11782   1.076   5.025  10.681
   48POPC    OD11783   1.023   4.943  10.450
   48POPC    CC11784   0.898   4.970  10.392
   48POPC    CD11785   0.826   4.850  10.335
   48POPC    OE11786   0.895   4.810  10.218
   48POPC   C1A11787   0.868   4.686  10.176
   48POPC    OF11788   0.798   4.602  10.233
   48POPC   C1B11789   0.957   4.663  10.056
   48POPC   C1C11790   0.935   4.531   9.976
   48POPC   C1D11791   0.811   4.549   9.885
   48POPC   C1E11792   0.799   4.446   9.775
   48POPC   C1F11793   0.662   4.447   9.704
   48POPC   C1G11794   0.679   4.358   9.577
   48POPC   C1H11795   0.560   4.382   9.481
   48POPC   C1I11796   0.580   4.270   9.377
   48POPC   C1J11797   0.594   4.287   9.248
   48POPC   C1K11798   0.606   4.411   9.170
   48POPC   C1L11799   0.584   4.405   9.014
   48POPC   C1M11800   0.434   4.381   8.993
   48POPC   C1N11801   0.382   4.397   8.848
   48POPC   C1O11802   0.470   4.339   8.732
   48POPC   C1P11803   0.410   4.341   8.599
   48POPC   C1Q11804   0.409   4.480   8.531
   48POPC   C1R11805   0.322   4.478   8.400
   48POPC    CE11806   0.681   4.872  10.317
   48POPC    OG11807   0.653   4.978  10.224
   48POPC   C2A11808   0.609   4.946  10.105
   48POPC    OH11809   0.575   4.834  10.067
   48POPC   C2B11810   0.603   5.068  10.017
   48POPC   C2C11811   0.627   5.026   9.869
   48POPC   C2D11812   0.644   5.142   9.776
   48POPC   C2E11813   0.665   5.106   9.621
   48POPC   C2F11814   0.678   5.225   9.522
   48POPC   C2G11815   0.695   5.176   9.373
   48POPC   C2H11816   0.726   5.294   9.280
   48POPC   C2I11817   0.743   5.241   9.134
   48POPC   C2J11818   0.798   5.349   9.040
   48POPC   C2K11819   0.831   5.276   8.910
   48POPC   C2L11820   0.874   5.375   8.800
   48POPC   C2M11821   0.959   5.309   8.691
   48POPC   C2N11822   0.966   5.401   8.572
   48POPC   C2O11823   1.055   5.345   8.460
   48POPC   C2P11824   1.068   5.443   8.343
   49POPC   CN111825   2.486   5.836  10.732
   49POPC   CN211826   2.296   5.920  10.609
   49POPC   CN311827   2.303   5.912  10.862
   49POPC   NTM11828   2.339   5.840  10.732
   49POPC    CA11829   2.280   5.693  10.739
   49POPC    CB11830   2.123   5.700  10.747
   49POPC    OA11831   2.074   5.767  10.631
   49POPC     P11832   1.921   5.766  10.600
   49POPC    OB11833   1.888   5.904  10.631
   49POPC    OC11834   1.854   5.658  10.671
   49POPC    OD11835   1.918   5.745  10.444
   49POPC    CC11836   2.013   5.677  10.367
   49POPC    CD11837   2.125   5.765  10.313
   49POPC    OE11838   2.070   5.847  10.212
   49POPC   C1A11839   2.144   5.953  10.180
   49POPC    OF11840   2.249   5.990  10.234
   49POPC   C1B11841   2.064   6.029  10.076
   49POPC   C1C11842   2.135   6.150  10.008
   49POPC   C1D11843   2.230   6.097   9.900
   49POPC   C1E11844   2.277   6.201   9.800
   49POPC   C1F11845   2.393   6.155   9.711
   49POPC   C1G11846   2.406   6.261   9.597
   49POPC   C1H11847   2.494   6.205   9.484
   49POPC   C1I11848   2.516   6.329   9.396
   49POPC   C1J11849   2.485   6.340   9.269
   49POPC   C1K11850   2.414   6.246   9.181
   49POPC   C1L11851   2.424   6.266   9.025
   49POPC   C1M11852   2.567   6.228   8.985
   49POPC   C1N11853   2.595   6.215   8.833
   49POPC   C1O11854   2.531   6.321   8.738
   49POPC   C1P11855   2.573   6.315   8.599
   49POPC   C1Q11856   2.508   6.201   8.517
   49POPC   C1R11857   2.577   6.186   8.375
   49POPC    CE11858   2.245   5.687  10.273
   49POPC    OG11859   2.216   5.595  10.166
   49POPC   C2A11860   2.259   5.623  10.046
   49POPC    OH11861   2.335   5.716  10.016
   49POPC   C2B11862   2.206   5.525   9.946
   49POPC   C2C11863   2.189   5.596   9.808
   49POPC   C2D11864   2.116   5.512   9.707
   49POPC   C2E11865   2.100   5.577   9.561
   49POPC   C2F11866   2.030   5.492   9.453
   49POPC   C2G11867   2.023   5.565   9.314
   49POPC   C2H11868   1.936   5.487   9.214
   49POPC   C2I11869   1.931   5.564   9.078
   49POPC   C2J11870   1.827   5.505   8.982
   49POPC   C2K11871   1.818   5.603   8.867
   49POPC   C2L11872   1.728   5.549   8.755
   49POPC   C2M11873   1.671   5.661   8.666
   49POPC   C2N11874   1.615   5.599   8.540
   49POPC   C2O11875   1.550   5.703   8.448
   49POPC   C2P11876   1.486   5.640   8.325
   50POPC   CN111877   1.808   3.088  10.727
   50POPC   CN211878   1.955   3.226  10.593
   50POPC   CN311879   1.975   3.209  10.845
   50POPC   NTM11880   1.880   3.218  10.726
   50POPC    CA11881   1.778   3.336  10.752
   50POPC    CB11882   1.857   3.472  10.759
   50POPC    OA11883   1.925   3.492  10.634
   50POPC     P11884   1.990   3.630  10.604
   50POPC    OB11885   2.130   3.596  10.616
   50POPC    OC11886   1.934   3.735  10.688
   50POPC    OD11887   1.954   3.652  10.452
   50POPC    CC11888   1.842   3.602  10.385
   50POPC    CD11889   1.861   3.466  10.320
   50POPC    OE11890   1.947   3.483  10.209
   50POPC   C1A11891   2.002   3.371  10.163
   50POPC    OF11892   1.994   3.258  10.212
   50POPC   C1B11893   2.094   3.414  10.050
   50POPC   C1C11894   2.160   3.300   9.966
   50POPC   C1D11895   2.057   3.245   9.867
   50POPC   C1E11896   2.116   3.163   9.754
   50POPC   C1F11897   2.010   3.085   9.672
   50POPC   C1G11898   2.085   3.032   9.545
   50POPC   C1H11899   1.981   2.986   9.441
   50POPC   C1I11900   2.071   2.915   9.338
   50POPC   C1J11901   2.079   2.945   9.210
   50POPC   C1K11902   2.018   3.055   9.135
   50POPC   C1L11903   2.013   3.047   8.977
   50POPC   C1M11904   1.909   2.939   8.944
   50POPC   C1N11905   1.867   2.930   8.795
   50POPC   C1O11906   1.978   2.944   8.686
   50POPC   C1P11907   1.937   2.917   8.549
   50POPC   C1Q11908   1.856   3.031   8.483
   50POPC   C1R11909   1.795   2.985   8.345
   50POPC    CE11910   1.733   3.397  10.291
   50POPC    OG11911   1.652   3.471  10.197
   50POPC   C2A11912   1.643   3.426  10.074
   50POPC    OH11913   1.687   3.318  10.033
   50POPC   C2B11914   1.569   3.524   9.988
   50POPC   C2C11915   1.623   3.515   9.842
   50POPC   C2D11916   1.571   3.624   9.752
   50POPC   C2E11917   1.618   3.617   9.600
   50POPC   C2F11918   1.562   3.724   9.503
   50POPC   C2G11919   1.613   3.705   9.355
   50POPC   C2H11920   1.572   3.824   9.267
   50POPC   C2I11921   1.626   3.800   9.122
   50POPC   C2J11922   1.610   3.925   9.034
   50POPC   C2K11923   1.687   3.895   8.907
   50POPC   C2L11924   1.667   4.007   8.802
   50POPC   C2M11925   1.781   4.012   8.700
   50POPC   C2N11926   1.737   4.097   8.582
   50POPC   C2O11927   1.848   4.113   8.478
   50POPC   C2P11928   1.806   4.205   8.364
   51POPC   CN111929   2.058   1.446  10.755
   51POPC   CN211930   1.996   1.245  10.637
   51POPC   CN311931   1.992   1.262  10.889
   51POPC   NTM11932   2.066   1.299  10.761
   51POPC    CA11933   2.217   1.254  10.776
   51POPC    CB11934   2.224   1.098  10.790
   51POPC    OA11935   2.166   1.038  10.673
   51POPC     P11936   2.182   0.885  10.649
   51POPC    OB11937   2.047   0.841  10.676
   51POPC    OC11938   2.293   0.831  10.727
   51POPC    OD11939   2.210   0.878  10.495
   51POPC    CC11940   2.272   0.976  10.416
   51POPC    CD11941   2.177   1.077  10.354
   51POPC    OE11942   2.104   1.012  10.252
   51POPC   C1A11943   1.993   1.075  10.213
   51POPC    OF11944   1.944   1.177  10.262
   51POPC   C1B11945   1.929   0.984  10.111
   51POPC   C1C11946   1.804   1.040  10.035
   51POPC   C1D11947   1.853   1.137   9.925
   51POPC   C1E11948   1.749   1.169   9.820
   51POPC   C1F11949   1.789   1.286   9.727
   51POPC   C1G11950   1.686   1.285   9.609
   51POPC   C1H11951   1.740   1.374   9.495
   51POPC   C1I11952   1.617   1.380   9.402
   51POPC   C1J11953   1.615   1.344   9.276
   51POPC   C1K11954   1.717   1.279   9.194
   51POPC   C1L11955   1.704   1.281   9.037
   51POPC   C1M11956   1.730   1.426   8.993
   51POPC   C1N11957   1.747   1.448   8.841
   51POPC   C1O11958   1.651   1.371   8.744
   51POPC   C1P11959   1.658   1.409   8.604
   51POPC   C1Q11960   1.781   1.352   8.529
   51POPC   C1R11961   1.796   1.416   8.385
   51POPC    CE11962   2.245   1.202  10.312
   51POPC    OG11963   2.344   1.178  10.210
   51POPC   C2A11964   2.316   1.214  10.087
   51POPC    OH11965   2.219   1.280  10.051
   51POPC   C2B11966   2.423   1.166   9.993
   51POPC   C2C11967   2.360   1.137   9.854
   51POPC   C2D11968   2.453   1.068   9.758
   51POPC   C2E11969   2.396   1.041   9.612
   51POPC   C2F11970   2.492   0.975   9.509
   51POPC   C2G11971   2.425   0.956   9.368
   51POPC   C2H11972   2.514   0.873   9.275
   51POPC   C2I11973   2.444   0.856   9.137
   51POPC   C2J11974   2.516   0.754   9.047
   51POPC   C2K11975   2.423   0.732   8.929
   51POPC   C2L11976   2.489   0.643   8.822
   51POPC   C2M11977   2.387   0.573   8.732
   51POPC   C2N11978   2.458   0.518   8.611
   51POPC   C2O11979   2.364   0.440   8.518
   51POPC   C2P11980   2.438   0.378   8.400
   52POPC   CN111981   3.631   3.260  10.754
   52POPC   CN211982   3.516   3.424  10.620
   52POPC   CN311983   3.513   3.428  10.873
   52POPC   NTM11984   3.507   3.341  10.747
   52POPC    CA11985   3.380   3.248  10.757
   52POPC    CB11986   3.250   3.336  10.758
   52POPC    OA11987   3.245   3.412  10.637
   52POPC     P11988   3.116   3.490  10.600
   52POPC    OB11989   3.159   3.626  10.624
   52POPC    OC11990   3.001   3.437  10.672
   52POPC    OD11991   3.105   3.465  10.445
   52POPC    CC11992   3.152   3.353  10.375
   52POPC    CD11993   3.293   3.366  10.322
   52POPC    OE11994   3.292   3.459  10.216
   52POPC   C1A11995   3.411   3.509  10.183
   52POPC    OF11996   3.519   3.489  10.241
   52POPC   C1B11997   3.385   3.610  10.074
   52POPC   C1C11998   3.510   3.673  10.004
   52POPC   C1D11999   3.566   3.572   9.902
   52POPC   C1E12000   3.661   3.631   9.801
   52POPC   C1F12001   3.738   3.525   9.719
   52POPC   C1G12002   3.807   3.603   9.602
   52POPC   C1H12003   3.854   3.502   9.495
   52POPC   C1I12004   3.939   3.592   9.403
   52POPC   C1J12005   3.921   3.611   9.275
   52POPC   C1K12006   3.813   3.563   9.187
   52POPC   C1L12007   3.834   3.566   9.031
   52POPC   C1M12008   3.938   3.457   8.999
   52POPC   C1N12009   3.957   3.423   8.849
   52POPC   C1O12010   3.960   3.542   8.747
   52POPC   C1P12011   3.995   3.507   8.611
   52POPC   C1Q12012   3.882   3.439   8.530
   52POPC   C1R12013   3.935   3.383   8.393
   52POPC    CE12014   3.356   3.235  10.290
   52POPC    OG12015   3.284   3.166  10.186
   52POPC   C2A12016   3.339   3.161  10.067
   52POPC    OH12017   3.452   3.198  10.037
   52POPC   C2B12018   3.243   3.100   9.969
   52POPC   C2C12019   3.268   3.162   9.828
   52POPC   C2D12020   3.164   3.124   9.726
   52POPC   C2E12021   3.188   3.179   9.578
   52POPC   C2F12022   3.085   3.138   9.469
   52POPC   C2G12023   3.120   3.196   9.328
   52POPC   C2H12024   3.007   3.170   9.227
   52POPC   C2I12025   3.046   3.230   9.089
   52POPC   C2J12026   2.928   3.229   8.990
   52POPC   C2K12027   2.974   3.312   8.871
   52POPC   C2L12028   2.871   3.307   8.757
   52POPC   C2M12029   2.883   3.426   8.662
   52POPC   C2N12030   2.805   3.397   8.536
   52POPC   C2O12031   2.806   3.514   8.438
   52POPC   C2P12032   2.721   3.487   8.314
   53POPC   CN112033   3.864   6.340  10.769
   53POPC   CN212034   3.851   6.135  10.643
   53POPC   CN312035   3.846   6.141  10.896
   53POPC   NTM12036   3.908   6.199  10.769
   53POPC    CA12037   4.065   6.191  10.782
   53POPC    CB12038   4.110   6.041  10.790
   53POPC    OA12039   4.067   5.973  10.671
   53POPC     P12040   4.118   5.830  10.640
   53POPC    OB12041   3.998   5.753  10.666
   53POPC    OC12042   4.240   5.801  10.716
   53POPC    OD12043   4.145   5.835  10.486
   53POPC    CC12044   4.181   5.949  10.411
   53POPC    CD12045   4.064   6.026  10.353
   53POPC    OE12046   4.008   5.949  10.249
   53POPC   C1A12047   3.885   5.985  10.213
   53POPC    OF12048   3.813   6.071  10.266
   53POPC   C1B12049   3.843   5.885  10.107
   53POPC   C1C12050   3.708   5.913  10.033
   53POPC   C1D12051   3.731   6.022   9.927
   53POPC   C1E12052   3.621   6.033   9.824
   53POPC   C1F12053   3.630   6.160   9.736
   53POPC   C1G12054   3.530   6.138   9.618
   53POPC   C1H12055   3.559   6.241   9.507
   53POPC   C1I12056   3.438   6.222   9.415
   53POPC   C1J12057   3.442   6.190   9.287
   53POPC   C1K12058   3.557   6.156   9.203
   53POPC   C1L12059   3.541   6.160   9.046
   53POPC   C1M12060   3.531   6.308   9.008
   53POPC   C1N12061   3.541   6.340   8.857
   53POPC   C1O12062   3.465   6.246   8.757
   53POPC   C1P12063   3.461   6.290   8.618
   53POPC   C1Q12064   3.594   6.267   8.541
   53POPC   C1R12065   3.591   6.338   8.400
   53POPC    CE12066   4.100   6.165  10.316
   53POPC    OG12067   4.200   6.170  10.213
   53POPC   C2A12068   4.163   6.202  10.092
   53POPC    OH12069   4.053   6.244  10.058
   53POPC   C2B12070   4.278   6.185   9.996
   53POPC   C2C12071   4.222   6.148   9.855
   53POPC   C2D12072   4.328   6.107   9.757
   53POPC   C2E12073   4.277   6.072   9.609
   53POPC   C2F12074   4.385   6.035   9.505
   53POPC   C2G12075   4.323   6.006   9.363
   53POPC   C2H12076   4.429   5.950   9.266
   53POPC   C2I12077   4.363   5.923   9.127
   53POPC   C2J12078   4.456   5.845   9.034
   53POPC   C2K12079   4.370   5.805   8.915
   53POPC   C2L12080   4.455   5.739   8.805
   53POPC   C2M12081   4.372   5.650   8.712
   53POPC   C2N12082   4.452   5.618   8.589
   53POPC   C2O12083   4.379   5.524   8.493
   53POPC   C2P12084   4.464   5.486   8.373
   54POPC   CN112085   0.319   2.889  10.767
   54POPC   CN212086   0.495   2.960  10.618
   54POPC   CN312087   0.525   2.948  10.869
   54POPC   NTM12088   0.431   2.985  10.754
   54POPC    CA12089   0.379   3.132  10.777
   54POPC    CB12090   0.500   3.232  10.771
   54POPC    OA12091   0.563   3.221  10.643
   54POPC     P12092   0.670   3.326  10.600
   54POPC    OB12093   0.790   3.245  10.608
   54POPC    OC12094   0.660   3.447  10.681
   54POPC    OD12095   0.634   3.352  10.449
   54POPC    CC12096   0.507   3.342  10.391
   54POPC    CD12097   0.474   3.205  10.334
   54POPC    OE12098   0.553   3.186  10.218
   54POPC   C1A12099   0.562   3.059  10.177
   54POPC    OF12100   0.519   2.959  10.234
   54POPC   C1B12101   0.656   3.062  10.058
   54POPC   C1C12102   0.673   2.928   9.979
   54POPC   C1D12103   0.551   2.909   9.888
   54POPC   C1E12104   0.570   2.806   9.779
   54POPC   C1F12105   0.439   2.767   9.707
   54POPC   C1G12106   0.482   2.685   9.580
   54POPC   C1H12107   0.362   2.674   9.484
   54POPC   C1I12108   0.414   2.572   9.381
   54POPC   C1J12109   0.424   2.591   9.252
   54POPC   C1K12110   0.401   2.712   9.172
   54POPC   C1L12111   0.383   2.699   9.016
   54POPC   C1M12112   0.246   2.632   8.994
   54POPC   C1N12113   0.194   2.632   8.849
   54POPC   C1O12114   0.296   2.601   8.734
   54POPC   C1P12115   0.239   2.584   8.601
   54POPC   C1Q12116   0.199   2.716   8.532
   54POPC   C1R12117   0.116   2.688   8.400
   54POPC    CE12118   0.328   3.184  10.315
   54POPC    OG12119   0.272   3.277  10.220
   54POPC   C2A12120   0.241   3.233  10.101
   54POPC    OH12121   0.241   3.115  10.065
   54POPC   C2B12122   0.200   3.347  10.013
   54POPC   C2C12123   0.237   3.313   9.865
   54POPC   C2D12124   0.221   3.428   9.771
   54POPC   C2E12125   0.252   3.398   9.617
   54POPC   C2F12126   0.231   3.514   9.516
   54POPC   C2G12127   0.263   3.472   9.368
   54POPC   C2H12128   0.260   3.593   9.274
   54POPC   C2I12129   0.293   3.546   9.128
   54POPC   C2J12130   0.316   3.664   9.034
   54POPC   C2K12131   0.370   3.603   8.905
   54POPC   C2L12132   0.383   3.709   8.795
   54POPC   C2M12133   0.485   3.670   8.687
   54POPC   C2N12134   0.466   3.759   8.566
   54POPC   C2O12135   0.568   3.730   8.456
   54POPC   C2P12136   0.554   3.826   8.338
   55POPC   CN112137   4.263   6.256  10.761
   55POPC   CN212138   4.341   6.073  10.625
   55POPC   CN312139   4.344   6.065  10.877
   55POPC   NTM12140   4.367   6.151  10.753
   55POPC    CA12141   4.511   6.216  10.763
   55POPC    CB12142   4.619   6.102  10.762
   55POPC    OA12143   4.608   6.028  10.641
   55POPC     P12144   4.718   5.925  10.602
   55POPC    OB12145   4.647   5.801  10.625
   55POPC    OC12146   4.842   5.952  10.674
   55POPC    OD12147   4.734   5.949  10.447
   55POPC    CC12148   4.711   6.069  10.378
   55POPC    CD12149   4.569   6.086  10.326
   55POPC    OE12150   4.550   5.997  10.219
   55POPC   C1A12151   4.424   5.973  10.187
   55POPC    OF12152   4.323   6.015  10.245
   55POPC   C1B12153   4.428   5.870  10.076
   55POPC   C1C12154   4.292   5.836  10.006
   55POPC   C1D12155   4.259   5.948   9.906
   55POPC   C1E12156   4.153   5.911   9.804
   55POPC   C1F12157   4.100   6.032   9.724
   55POPC   C1G12158   4.016   5.971   9.606
   55POPC   C1H12159   3.990   6.081   9.500
   55POPC   C1I12160   3.888   6.012   9.409
   55POPC   C1J12161   3.901   5.991   9.280
   55POPC   C1K12162   4.016   6.017   9.192
   55POPC   C1L12163   3.994   6.019   9.036
   55POPC   C1M12164   3.916   6.148   9.006
   55POPC   C1N12165   3.904   6.187   8.857
   55POPC   C1O12166   3.876   6.073   8.753
   55POPC   C1P12167   3.848   6.116   8.617
   55POPC   C1Q12168   3.973   6.160   8.537
   55POPC   C1R12169   3.933   6.227   8.400
   55POPC    CE12170   4.536   6.228  10.296
   55POPC    OG12171   4.619   6.282  10.192
   55POPC   C2A12172   4.567   6.299  10.073
   55POPC    OH12173   4.448   6.287  10.044
   55POPC   C2B12174   4.673   6.340   9.975
   55POPC   C2C12175   4.635   6.287   9.834
   55POPC   C2D12176   4.744   6.304   9.732
   55POPC   C2E12177   4.709   6.256   9.583
   55POPC   C2F12178   4.818   6.276   9.475
   55POPC   C2G12179   4.772   6.228   9.333
   55POPC   C2H12180   4.887   6.232   9.232
   55POPC   C2I12181   4.836   6.182   9.093
   55POPC   C2J12182   4.951   6.160   8.994
   55POPC   C2K12183   4.888   6.090   8.874
   55POPC   C2L12184   4.990   6.075   8.760
   55POPC   C2M12185   4.953   5.961   8.663
   55POPC   C2N12186   5.035   5.976   8.537
   55POPC   C2O12187   5.009   5.862   8.438
   55POPC   C2P12188   5.097   5.872   8.314
   56POPC   CN112189   0.072   0.889  10.657
   56POPC   CN212190   0.231   1.050  10.573
   56POPC   CN312191   0.180   1.025  10.819
   56POPC   NTM12192   0.123   1.026  10.677
   56POPC    CA12193   0.003   1.130  10.674
   56POPC    CB12194   0.057   1.274  10.704
   56POPC    OA12195   0.154   1.308  10.604
   56POPC     P12196   0.206   1.455  10.595
   56POPC    OB12197   0.340   1.438  10.647
   56POPC    OC12198   0.115   1.547  10.660
   56POPC    OD12199   0.213   1.478  10.440
   56POPC    CC12200   0.133   1.417  10.342
   56POPC    CD12201   0.188   1.288  10.285
   56POPC    OE12202   0.299   1.321  10.204
   56POPC   C1A12203   0.380   1.219  10.176
   56POPC    OF12204   0.373   1.104  10.220
   56POPC   C1B12205   0.493   1.278  10.095
   56POPC   C1C12206   0.596   1.178  10.033
   56POPC   C1D12207   0.534   1.115   9.908
   56POPC   C1E12208   0.633   1.045   9.817
   56POPC   C1F12209   0.568   0.959   9.707
   56POPC   C1G12210   0.683   0.922   9.607
   56POPC   C1H12211   0.620   0.867   9.477
   56POPC   C1I12212   0.744   0.813   9.404
   56POPC   C1J12213   0.785   0.850   9.284
   56POPC   C1K12214   0.734   0.954   9.195
   56POPC   C1L12215   0.775   0.953   9.043
   56POPC   C1M12216   0.701   0.834   8.980
   56POPC   C1N12217   0.705   0.825   8.826
   56POPC   C1O12218   0.840   0.859   8.754
   56POPC   C1P12219   0.845   0.832   8.611
   56POPC   C1Q12220   0.771   0.938   8.524
   56POPC   C1R12221   0.759   0.891   8.374
   56POPC    CE12222   0.085   1.205  10.219
   56POPC    OG12223   0.025   1.271  10.107
   56POPC   C2A12224   0.058   1.232   9.986
   56POPC    OH12225   0.125   1.132   9.959
   56POPC   C2B12226  -0.001   1.323   9.883
   56POPC   C2C12227   0.093   1.327   9.759
   56POPC   C2D12228   0.055   1.432   9.658
   56POPC   C2E12229   0.145   1.438   9.526
   56POPC   C2F12230   0.105   1.542   9.418
   56POPC   C2G12231   0.198   1.537   9.292
   56POPC   C2H12232   0.169   1.653   9.195
   56POPC   C2I12233   0.265   1.643   9.072
   56POPC   C2J12234   0.258   1.768   8.984
   56POPC   C2K12235   0.372   1.754   8.885
   56POPC   C2L12236   0.368   1.867   8.780
   56POPC   C2M12237   0.505   1.891   8.715
   56POPC   C2N12238   0.486   1.975   8.590
   56POPC   C2O12239   0.618   2.010   8.523
   56POPC   C2P12240   0.599   2.101   8.402
   57POPC   CN112241   2.584   2.700  10.662
   57POPC   CN212242   2.436   2.864  10.566
   57POPC   CN312243   2.465   2.835  10.816
   57POPC   NTM12244   2.453   2.765  10.681
   57POPC    CA12245   2.339   2.656  10.692
   57POPC    CB12246   2.202   2.726  10.720
   57POPC    OA12247   2.173   2.816  10.612
   57POPC     P12248   2.032   2.881  10.601
   57POPC    OB12249   2.063   3.017  10.640
   57POPC    OC12250   1.933   2.805  10.678
   57POPC    OD12251   2.004   2.875  10.447
   57POPC    CC12252   2.053   2.780  10.356
   57POPC    CD12253   2.185   2.818  10.291
   57POPC    OE12254   2.160   2.922  10.200
   57POPC   C1A12255   2.268   2.990  10.161
   57POPC    OF12256   2.383   2.977  10.203
   57POPC   C1B12257   2.217   3.101  10.071
   57POPC   C1C12258   2.324   3.187   9.997
   57POPC   C1D12259   2.377   3.108   9.877
   57POPC   C1E12260   2.451   3.191   9.774
   57POPC   C1F12261   2.528   3.107   9.670
   57POPC   C1G12262   2.572   3.207   9.558
   57POPC   C1H12263   2.616   3.128   9.433
   57POPC   C1I12264   2.678   3.239   9.347
   57POPC   C1J12265   2.642   3.271   9.225
   57POPC   C1K12266   2.530   3.222   9.144
   57POPC   C1L12267   2.530   3.248   8.988
   57POPC   C1M12268   2.640   3.158   8.930
   57POPC   C1N12269   2.643   3.146   8.776
   57POPC   C1O12270   2.620   3.276   8.692
   57POPC   C1P12271   2.641   3.264   8.549
   57POPC   C1Q12272   2.526   3.193   8.473
   57POPC   C1R12273   2.567   3.162   8.323
   57POPC    CE12274   2.256   2.701  10.233
   57POPC    OG12275   2.180   2.637  10.129
   57POPC   C2A12276   2.219   2.654  10.005
   57POPC    OH12277   2.323   2.709   9.968
   57POPC   C2B12278   2.119   2.595   9.910
   57POPC   C2C12279   2.119   2.677   9.778
   57POPC   C2D12280   2.007   2.639   9.684
   57POPC   C2E12281   2.005   2.716   9.544
   57POPC   C2F12282   1.895   2.676   9.443
   57POPC   C2G12283   1.904   2.756   9.308
   57POPC   C2H12284   1.783   2.729   9.218
   57POPC   C2I12285   1.797   2.811   9.086
   57POPC   C2J12286   1.669   2.808   9.002
   57POPC   C2K12287   1.690   2.910   8.892
   57POPC   C2L12288   1.574   2.907   8.790
   57POPC   C2M12289   1.560   3.038   8.713
   57POPC   C2N12290   1.471   3.015   8.593
   57POPC   C2O12291   1.446   3.144   8.514
   57POPC   C2P12292   1.349   3.122   8.398
   58POPC   CN112293   3.164   5.393  10.778
   58POPC   CN212294   3.160   5.196  10.639
   58POPC   CN312295   3.135   5.186  10.891
   58POPC   NTM12296   3.207   5.252  10.773
   58POPC    CA12297   3.363   5.241  10.799
   58POPC    CB12298   3.405   5.090  10.802
   58POPC    OA12299   3.372   5.030  10.675
   58POPC     P12300   3.425   4.888  10.640
   58POPC    OB12301   3.302   4.812  10.651
   58POPC    OC12302   3.539   4.853  10.724
   58POPC    OD12303   3.464   4.903  10.489
   58POPC    CC12304   3.507   5.020  10.425
   58POPC    CD12305   3.396   5.102  10.363
   58POPC    OE12306   3.348   5.032  10.250
   58POPC   C1A12307   3.229   5.072  10.205
   58POPC    OF12308   3.154   5.155  10.257
   58POPC   C1B12309   3.195   4.980  10.090
   58POPC   C1C12310   3.067   5.014  10.008
   58POPC   C1D12311   3.100   5.129   9.911
   58POPC   C1E12312   2.999   5.148   9.799
   58POPC   C1F12313   3.017   5.279   9.721
   58POPC   C1G12314   2.926   5.266   9.594
   58POPC   C1H12315   2.966   5.376   9.492
   58POPC   C1I12316   2.852   5.363   9.389
   58POPC   C1J12317   2.867   5.340   9.261
   58POPC   C1K12318   2.988   5.309   9.184
   58POPC   C1L12319   2.986   5.322   9.027
   58POPC   C1M12320   2.980   5.473   8.997
   58POPC   C1N12321   3.003   5.514   8.850
   58POPC   C1O12322   2.934   5.427   8.739
   58POPC   C1P12323   2.943   5.479   8.603
   58POPC   C1Q12324   3.082   5.459   8.536
   58POPC   C1R12325   3.091   5.539   8.400
   58POPC    CE12326   3.436   5.243  10.337
   58POPC    OG12327   3.545   5.252  10.243
   58POPC   C2A12328   3.519   5.293  10.122
   58POPC    OH12329   3.411   5.338  10.082
   58POPC   C2B12330   3.640   5.280  10.035
   58POPC   C2C12331   3.596   5.252   9.888
   58POPC   C2D12332   3.710   5.215   9.797
   58POPC   C2E12333   3.671   5.191   9.643
   58POPC   C2F12334   3.787   5.158   9.546
   58POPC   C2G12335   3.737   5.139   9.398
   58POPC   C2H12336   3.850   5.088   9.307
   58POPC   C2I12337   3.796   5.070   9.162
   58POPC   C2J12338   3.896   4.996   9.072
   58POPC   C2K12339   3.820   4.965   8.944
   58POPC   C2L12340   3.913   4.905   8.837
   58POPC   C2M12341   3.837   4.822   8.733
   58POPC   C2N12342   3.928   4.798   8.614
   58POPC   C2O12343   3.862   4.710   8.508
   58POPC   C2P12344   3.956   4.678   8.392
   59POPC   CN112345   5.242   1.999  10.710
   59POPC   CN212346   5.324   2.182  10.574
   59POPC   CN312347   5.365   2.168  10.824
   59POPC   NTM12348   5.265   2.145  10.710
   59POPC    CA12349   5.131   2.221  10.748
   59POPC    CB12350   5.159   2.376  10.755
   59POPC    OA12351   5.207   2.421  10.628
   59POPC     P12352   5.219   2.573  10.600
   59POPC    OB12353   5.363   2.588  10.602
   59POPC    OC12354   5.137   2.650  10.692
   59POPC    OD12355   5.168   2.584  10.451
   59POPC    CC12356   5.075   2.500  10.389
   59POPC    CD12357   5.136   2.381  10.317
   59POPC    OE12358   5.202   2.428  10.202
   59POPC   C1A12359   5.290   2.343  10.149
   59POPC    OF12360   5.324   2.233  10.193
   59POPC   C1B12361   5.353   2.417  10.033
   59POPC   C1C12362   5.449   2.335   9.941
   59POPC   C1D12363   5.364   2.250   9.845
   59POPC   C1E12364   5.440   2.194   9.726
   59POPC   C1F12365   5.362   2.087   9.646
   59POPC   C1G12366   5.442   2.066   9.514
   59POPC   C1H12367   5.353   1.989   9.413
   59POPC   C1I12368   5.454   1.956   9.302
   59POPC   C1J12369   5.443   1.989   9.176
   59POPC   C1K12370   5.344   2.073   9.109
   59POPC   C1L12371   5.331   2.067   8.952
   59POPC   C1M12372   5.268   1.930   8.919
   59POPC   C1N12373   5.222   1.910   8.773
   59POPC   C1O12374   5.314   1.964   8.659
   59POPC   C1P12375   5.276   1.927   8.523
   59POPC   C1Q12376   5.156   2.007   8.467
   59POPC   C1R12377   5.105   1.946   8.331
   59POPC    CE12378   5.037   2.272  10.292
   59POPC    OG12379   4.930   2.316  10.206
   59POPC   C2A12380   4.929   2.273  10.083
   59POPC    OH12381   5.003   2.188  10.034
   59POPC   C2B12382   4.820   2.341  10.005
   59POPC   C2C12383   4.863   2.354   9.856
   59POPC   C2D12384   4.772   2.440   9.774
   59POPC   C2E12385   4.808   2.453   9.618
   59POPC   C2F12386   4.712   2.537   9.530
   59POPC   C2G12387   4.756   2.540   9.379
   59POPC   C2H12388   4.672   2.638   9.298
   59POPC   C2I12389   4.720   2.638   9.149
   59POPC   C2J12390   4.657   2.751   9.068
   59POPC   C2K12391   4.731   2.753   8.935
   59POPC   C2L12392   4.667   2.852   8.837
   59POPC   C2M12393   4.765   2.898   8.728
   59POPC   C2N12394   4.687   2.966   8.617
   59POPC   C2O12395   4.778   3.021   8.507
   59POPC   C2P12396   4.700   3.096   8.400
   60POPC   CN112397   1.284   0.687  10.777
   60POPC   CN212398   1.182   0.860  10.643
   60POPC   CN312399   1.200   0.874  10.895
   60POPC   NTM12400   1.173   0.784  10.775
   60POPC    CA12401   1.035   0.709  10.800
   60POPC    CB12402   0.919   0.814  10.806
   60POPC    OA12403   0.915   0.886  10.681
   60POPC     P12404   0.794   0.979  10.650
   60POPC    OB12405   0.857   1.108  10.663
   60POPC    OC12406   0.679   0.945  10.733
   60POPC    OD12407   0.767   0.949  10.498
   60POPC    CC12408   0.793   0.829  10.430
   60POPC    CD12409   0.931   0.820  10.366
   60POPC    OE12410   0.933   0.908  10.256
   60POPC   C1A12411   1.055   0.939  10.212
   60POPC    OF12412   1.163   0.907  10.262
   60POPC   C1B12413   1.034   1.038  10.099
   60POPC   C1C12414   1.160   1.080  10.017
   60POPC   C1D12415   1.193   0.968   9.917
   60POPC   C1E12416   1.288   1.009   9.806
   60POPC   C1F12417   1.342   0.891   9.724
   60POPC   C1G12418   1.411   0.953   9.599
   60POPC   C1H12419   1.436   0.843   9.493
   60POPC   C1I12420   1.525   0.916   9.392
   60POPC   C1J12421   1.499   0.932   9.264
   60POPC   C1K12422   1.379   0.896   9.187
   60POPC   C1L12423   1.388   0.890   9.030
   60POPC   C1M12424   1.473   0.766   8.996
   60POPC   C1N12425   1.475   0.724   8.848
   60POPC   C1O12426   1.486   0.836   8.740
   60POPC   C1P12427   1.505   0.791   8.602
   60POPC   C1Q12428   1.377   0.736   8.534
   60POPC   C1R12429   1.411   0.667   8.396
   60POPC    CE12430   0.972   0.681  10.337
   60POPC    OG12431   0.884   0.618  10.242
   60POPC   C2A12432   0.927   0.601  10.119
   60POPC    OH12433   1.042   0.620  10.079
   60POPC   C2B12434   0.817   0.549  10.032
   60POPC   C2C12435   0.839   0.600   9.886
   60POPC   C2D12436   0.723   0.573   9.795
   60POPC   C2E12437   0.741   0.619   9.643
   60POPC   C2F12438   0.626   0.587   9.545
   60POPC   C2G12439   0.656   0.634   9.398
   60POPC   C2H12440   0.533   0.619   9.307
   60POPC   C2I12441   0.569   0.668   9.163
   60POPC   C2J12442   0.444   0.679   9.074
   60POPC   C2K12443   0.491   0.749   8.948
   60POPC   C2L12444   0.380   0.754   8.842
   60POPC   C2M12445   0.400   0.867   8.740
   60POPC   C2N12446   0.309   0.843   8.622
   60POPC   C2O12447   0.317   0.955   8.518
   60POPC   C2P12448   0.220   0.934   8.403
   61POPC   CN112449   0.231   3.493  10.659
   61POPC   CN212450   0.452   3.458  10.568
   61POPC   CN312451   0.407   3.469  10.817
   61POPC   NTM12452   0.373   3.527  10.679
   61POPC    CA12453   0.391   3.684  10.686
   61POPC    CB12454   0.541   3.718  10.715
   61POPC    OA12455   0.623   3.664  10.610
   61POPC     P12456   0.773   3.704  10.600
   61POPC    OB12457   0.835   3.581  10.643
   61POPC    OC12458   0.799   3.828  10.673
   61POPC    OD12459   0.793   3.722  10.445
   61POPC    CC12460   0.695   3.760  10.352
   61POPC    CD12461   0.619   3.646  10.289
   61POPC    OE12462   0.706   3.578  10.201
   61POPC   C1A12463   0.667   3.456  10.165
   61POPC    OF12464   0.569   3.394  10.208
   61POPC   C1B12465   0.779   3.401  10.078
   61POPC   C1C12466   0.752   3.264  10.008
   61POPC   C1D12467   0.663   3.288   9.886
   61POPC   C1E12468   0.659   3.173   9.787
   61POPC   C1F12469   0.549   3.186   9.680
   61POPC   C1G12470   0.580   3.077   9.572
   61POPC   C1H12471   0.498   3.106   9.445
   61POPC   C1I12472   0.522   2.978   9.363
   61POPC   C1J12473   0.572   2.973   9.242
   61POPC   C1K12474   0.628   3.080   9.158
   61POPC   C1L12475   0.647   3.055   9.004
   61POPC   C1M12476   0.506   3.053   8.943
   61POPC   C1N12477   0.498   3.055   8.789
   61POPC   C1O12478   0.600   2.967   8.709
   61POPC   C1P12479   0.578   2.959   8.566
   61POPC   C1Q12480   0.623   3.084   8.487
   61POPC   C1R12481   0.574   3.077   8.337
   61POPC    CE12482   0.490   3.688  10.228
   61POPC    OG12483   0.510   3.783  10.121
   61POPC   C2A12484   0.493   3.741   9.998
   61POPC    OH12485   0.448   3.631   9.964
   61POPC   C2B12486   0.533   3.848   9.901
   61POPC   C2C12487   0.587   3.781   9.771
   61POPC   C2D12488   0.651   3.878   9.675
   61POPC   C2E12489   0.703   3.816   9.537
   61POPC   C2F12490   0.764   3.914   9.434
   61POPC   C2G12491   0.810   3.843   9.302
   61POPC   C2H12492   0.887   3.938   9.210
   61POPC   C2I12493   0.931   3.862   9.081
   61POPC   C2J12494   1.029   3.944   8.997
   61POPC   C2K12495   1.079   3.849   8.889
   61POPC   C2L12496   1.168   3.922   8.787
   61POPC   C2M12497   1.264   3.828   8.714
   61POPC   C2N12498   1.320   3.898   8.593
   61POPC   C2O12499   1.422   3.813   8.517
   61POPC   C2P12500   1.484   3.888   8.400
   62POPC   CN112501   0.406   1.890  10.756
   62POPC   CN212502   0.460   1.712  10.601
   62POPC   CN312503   0.421   1.671  10.848
   62POPC   NTM12504   0.482   1.764  10.743
   62POPC    CA12505   0.634   1.787  10.781
   62POPC    CB12506   0.712   1.651  10.775
   62POPC    OA12507   0.702   1.599  10.641
   62POPC     P12508   0.790   1.477  10.600
   62POPC    OB12509   0.690   1.374  10.593
   62POPC    OC12510   0.904   1.462  10.690
   62POPC    OD12511   0.835   1.516  10.454
   62POPC    CC12512   0.852   1.646  10.404
   62POPC    CD12513   0.729   1.706  10.339
   62POPC    OE12514   0.707   1.639  10.217
   62POPC   C1A12515   0.585   1.653  10.166
   62POPC    OF12516   0.488   1.711  10.218
   62POPC   C1B12517   0.582   1.568  10.041
   62POPC   C1C12518   0.455   1.579   9.951
   62POPC   C1D12519   0.465   1.707   9.867
   62POPC   C1E12520   0.370   1.713   9.749
   62POPC   C1F12521   0.361   1.852   9.683
   62POPC   C1G12522   0.284   1.831   9.548
   62POPC   C1H12523   0.302   1.956   9.460
   62POPC   C1I12524   0.202   1.928   9.346
   62POPC   C1J12525   0.231   1.922   9.219
   62POPC   C1K12526   0.361   1.929   9.151
   62POPC   C1L12527   0.365   1.957   8.995
   62POPC   C1M12528   0.325   2.105   8.978
   62POPC   C1N12529   0.346   2.164   8.837
   62POPC   C1O12530   0.309   2.076   8.714
   62POPC   C1P12531   0.313   2.142   8.584
   62POPC   C1Q12532   0.457   2.162   8.528
   62POPC   C1R12533   0.455   2.255   8.400
   62POPC    CE12534   0.734   1.854  10.329
   62POPC    OG12535   0.844   1.898  10.246
   62POPC   C2A12536   0.816   1.944  10.126
   62POPC    OH12537   0.704   1.966  10.081
   62POPC   C2B12538   0.943   1.969  10.050
   62POPC   C2C12539   0.916   1.946   9.898
   62POPC   C2D12540   1.041   1.947   9.814
   62POPC   C2E12541   1.020   1.930   9.657
   62POPC   C2F12542   1.147   1.936   9.567
   62POPC   C2G12543   1.113   1.921   9.414
   62POPC   C2H12544   1.241   1.907   9.330
   62POPC   C2I12545   1.202   1.891   9.180
   62POPC   C2J12546   1.322   1.854   9.093
   62POPC   C2K12547   1.265   1.819   8.957
   62POPC   C2L12548   1.377   1.793   8.854
   62POPC   C2M12549   1.330   1.706   8.737
   62POPC   C2N12550   1.432   1.716   8.625
   62POPC   C2O12551   1.396   1.626   8.506
   62POPC   C2P12552   1.503   1.630   8.398
   63POPC   CN112553   1.999   5.999  10.766
   63POPC   CN212554   1.861   6.136  10.622
   63POPC   CN312555   1.857   6.155  10.874
   63POPC   NTM12556   1.865   6.060  10.755
   63POPC    CA12557   1.753   5.950  10.771
   63POPC    CB12558   1.612   6.017  10.767
   63POPC    OA12559   1.596   6.084  10.642
   63POPC     P12560   1.456   6.139  10.600
   63POPC    OB12561   1.479   6.281  10.615
   63POPC    OC12562   1.350   6.074  10.676
   63POPC    OD12563   1.449   6.103  10.447
   63POPC    CC12564   1.513   5.995  10.384
   63POPC    CD12565   1.652   6.026  10.330
   63POPC    OE12566   1.637   6.111  10.218
   63POPC   C1A12567   1.748   6.175  10.182
   63POPC    OF12568   1.857   6.176  10.240
   63POPC   C1B12569   1.707   6.264  10.066
   63POPC   C1C12570   1.821   6.340   9.992
   63POPC   C1D12571   1.892   6.242   9.896
   63POPC   C1E12572   1.978   6.308   9.791
   63POPC   C1F12573   2.070   6.210   9.715
   63POPC   C1G12574   2.127   6.290   9.593
   63POPC   C1H12575   2.189   6.191   9.492
   63POPC   C1I12576   2.260   6.286   9.395
   63POPC   C1J12577   2.240   6.294   9.266
   63POPC   C1K12578   2.142   6.225   9.182
   63POPC   C1L12579   2.162   6.221   9.026
   63POPC   C1M12580   2.281   6.127   9.000
   63POPC   C1N12581   2.306   6.087   8.853
   63POPC   C1O12582   2.291   6.198   8.744
   63POPC   C1P12583   2.332   6.160   8.609
   63POPC   C1Q12584   2.231   6.071   8.534
   63POPC   C1R12585   2.292   6.015   8.400
   63POPC    CE12586   1.733   5.904  10.306
   63POPC    OG12587   1.673   5.818  10.207
   63POPC   C2A12588   1.728   5.814  10.088
   63POPC    OH12589   1.835   5.866  10.055
   63POPC   C2B12590   1.644   5.733   9.994
   63POPC   C2C12591   1.660   5.789   9.849
   63POPC   C2D12592   1.563   5.729   9.751
   63POPC   C2E12593   1.579   5.778   9.600
   63POPC   C2F12594   1.484   5.714   9.495
   63POPC   C2G12595   1.510   5.768   9.349
   63POPC   C2H12596   1.403   5.719   9.251
   63POPC   C2I12597   1.433   5.775   9.109
   63POPC   C2J12598   1.317   5.750   9.011
   63POPC   C2K12599   1.351   5.831   8.887
   63POPC   C2L12600   1.250   5.803   8.774
   63POPC   C2M12601   1.244   5.917   8.671
   63POPC   C2N12602   1.173   5.868   8.548
   63POPC   C2O12603   1.156   5.978   8.442
   63POPC   C2P12604   1.077   5.930   8.321
   64POPC   CN112605   1.805   1.112  10.755
   64POPC   CN212606   1.790   1.309  10.617
   64POPC   CN312607   1.802   1.320  10.869
   64POPC   NTM12608   1.745   1.246  10.748
   64POPC    CA12609   1.588   1.236  10.766
   64POPC    CB12610   1.525   1.380  10.766
   64POPC    OA12611   1.557   1.445  10.642
   64POPC     P12612   1.487   1.579  10.605
   64POPC    OB12613   1.598   1.671  10.622
   64POPC    OC12614   1.365   1.598  10.682
   64POPC    OD12615   1.458   1.561  10.452
   64POPC    CC12616   1.434   1.439  10.385
   64POPC    CD12617   1.558   1.373  10.328
   64POPC    OE12618   1.602   1.450  10.218
   64POPC   C1A12619   1.727   1.427  10.180
   64POPC    OF12620   1.810   1.354  10.236
   64POPC   C1B12621   1.754   1.524  10.067
   64POPC   C1C12622   1.890   1.508   9.991
   64POPC   C1D12623   1.878   1.390   9.892
   64POPC   C1E12624   1.985   1.386   9.786
   64POPC   C1F12625   1.990   1.254   9.706
   64POPC   C1G12626   2.084   1.281   9.585
   64POPC   C1H12627   2.065   1.168   9.480
   64POPC   C1I12628   2.181   1.196   9.383
   64POPC   C1J12629   2.169   1.218   9.255
   64POPC   C1K12630   2.049   1.234   9.172
   64POPC   C1L12631   2.061   1.222   9.015
   64POPC   C1M12632   2.088   1.074   8.985
   64POPC   C1N12633   2.079   1.031   8.837
   64POPC   C1O12634   2.140   1.127   8.730
   64POPC   C1P12635   2.145   1.076   8.594
   64POPC   C1Q12636   2.009   1.078   8.519
   64POPC   C1R12637   2.018   0.999   8.383
   64POPC    CE12638   1.539   1.229  10.300
   64POPC    OG12639   1.437   1.206  10.201
   64POPC   C2A12640   1.474   1.170  10.081
   64POPC    OH12641   1.589   1.140  10.046
   64POPC   C2B12642   1.357   1.168   9.988
   64POPC   C2C12643   1.404   1.203   9.844
   64POPC   C2D12644   1.292   1.224   9.747
   64POPC   C2E12645   1.334   1.255   9.596
   64POPC   C2F12646   1.220   1.273   9.492
   64POPC   C2G12647   1.274   1.300   9.347
   64POPC   C2H12648   1.160   1.337   9.251
   64POPC   C2I12649   1.219   1.363   9.109
   64POPC   C2J12650   1.115   1.423   9.014
   64POPC   C2K12651   1.192   1.465   8.890
   64POPC   C2L12652   1.097   1.514   8.779
   64POPC   C2M12653   1.167   1.607   8.679
   64POPC   C2N12654   1.080   1.620   8.556
   64POPC   C2O12655   1.139   1.717   8.453
   64POPC   C2P12656   1.047   1.737   8.333
   6.31000   6.34000  16.00000
