POPC in water
12656
    1SOL     OW    1   1.950   2.740   0.970
    1SOL    HW1    2   2.011   2.707   1.042
    1SOL    HW2    3   1.891   2.666   0.939
    2SOL     OW    4   2.787   4.546   4.672
    2SOL    HW1    5   2.821   4.468   4.725
    2SOL    HW2    6   2.864   4.603   4.645
    3SOL     OW    7   3.119   5.318   2.688
    3SOL    HW1    8   3.192   5.352   2.747
    3SOL    HW2    9   3.035   5.310   2.742
    4SOL     OW   10   4.825   2.993   1.692
    4SOL    HW1   11   4.898   3.053   1.659
    4SOL    HW2   12   4.844   2.899   1.666
    5SOL     OW   13   4.838   5.316   1.642
    5SOL    HW1   14   4.903   5.364   1.584
    5SOL    HW2   15   4.887   5.269   1.715
    6SOL     OW   16   5.510   2.317   1.211
    6SOL    HW1   17   5.602   2.277   1.209
    6SOL    HW2   18   5.486   2.349   1.119
    7SOL     OW   19   2.051   5.674   0.944
    7SOL    HW1   20   1.961   5.689   0.985
    7SOL    HW2   21   2.120   5.724   0.995
    8SOL     OW   22   2.559   0.301   4.764
    8SOL    HW1   23   2.476   0.343   4.799
    8SOL    HW2   24   2.610   0.260   4.840
    9SOL     OW   25   0.361   4.871   3.470
    9SOL    HW1   26   0.396   4.778   3.456
    9SOL    HW2   27   0.357   4.919   3.382
   10SOL     OW   28   0.665   0.999   0.638
   10SOL    HW1   29   0.738   1.007   0.706
   10SOL    HW2   30   0.593   1.064   0.660
   11SOL     OW   31   0.079   6.017   0.408
   11SOL    HW1   32   0.111   6.080   0.478
   11SOL    HW2   33   0.123   6.038   0.320
   12SOL     OW   34   0.181   4.377   3.310
   12SOL    HW1   35   0.170   4.361   3.408
   12SOL    HW2   36   0.101   4.425   3.275
   13SOL     OW   37   4.740   4.905   2.603
   13SOL    HW1   38   4.676   4.900   2.680
   13SOL    HW2   39   4.831   4.875   2.633
   14SOL     OW   40   5.642   1.403   1.494
   14SOL    HW1   41   5.718   1.440   1.440
   14SOL    HW2   42   5.679   1.354   1.573
   15SOL     OW   43   3.311   2.258   2.424
   15SOL    HW1   44   3.220   2.219   2.408
   15SOL    HW2   45   3.311   2.307   2.511
   16SOL     OW   46   4.184   4.141   4.482
   16SOL    HW1   47   4.214   4.218   4.539
   16SOL    HW2   48   4.099   4.103   4.519
   17SOL     OW   49   3.220   3.153   3.038
   17SOL    HW1   50   3.284   3.080   3.060
   17SOL    HW2   51   3.135   3.113   3.002
   18SOL     OW   52   2.580   5.431   0.556
   18SOL    HW1   53   2.564   5.335   0.575
   18SOL    HW2   54   2.510   5.465   0.492
   19SOL     OW   55   2.323   0.490   1.988
   19SOL    HW1   56   2.421   0.509   1.995
   19SOL    HW2   57   2.274   0.575   1.969
   20SOL     OW   58   3.701   5.596   2.851
   20SOL    HW1   59   3.627   5.545   2.808
   20SOL    HW2   60   3.788   5.551   2.833
   21SOL     OW   61   0.669   5.429   2.573
   21SOL    HW1   62   0.613   5.368   2.517
   21SOL    HW2   63   0.765   5.415   2.550
   22SOL     OW   64   6.230   5.591   0.684
   22SOL    HW1   65   6.301   5.655   0.656
   22SOL    HW2   66   6.257   5.498   0.657
   23SOL     OW   67   5.207   1.420   0.178
   23SOL    HW1   68   5.229   1.509   0.138
   23SOL    HW2   69   5.177   1.433   0.273
   24SOL     OW   70   2.211   3.368   4.703
   24SOL    HW1   71   2.277   3.323   4.644
   24SOL    HW2   72   2.203   3.318   4.789
   25SOL     OW   73   4.101   5.533   4.214
   25SOL    HW1   74   4.168   5.463   4.191
   25SOL    HW2   75   4.017   5.490   4.245
   26SOL     OW   76   3.969   0.741   2.921
   26SOL    HW1   77   3.986   0.731   2.823
   26SOL    HW2   78   3.879   0.783   2.935
   27SOL     OW   79   1.217   2.072   0.756
   27SOL    HW1   80   1.270   2.016   0.819
   27SOL    HW2   81   1.120   2.050   0.764
   28SOL     OW   82   4.387   5.207   2.010
   28SOL    HW1   83   4.345   5.116   2.008
   28SOL    HW2   84   4.481   5.200   1.978
   29SOL     OW   85   2.153   3.588   0.583
   29SOL    HW1   86   2.179   3.685   0.579
   29SOL    HW2   87   2.234   3.533   0.604
   30SOL     OW   88   0.460   4.130   3.452
   30SOL    HW1   89   0.538   4.160   3.506
   30SOL    HW2   90   0.463   4.174   3.362
   31SOL     OW   91   0.120   1.892   4.153
   31SOL    HW1   92   0.193   1.961   4.149
   31SOL    HW2   93   0.132   1.836   4.235
   32SOL     OW   94   3.734   5.962   1.039
   32SOL    HW1   95   3.677   5.960   1.121
   32SOL    HW2   96   3.792   5.881   1.036
   33SOL     OW   97   0.747   4.346   4.235
   33SOL    HW1   98   0.751   4.258   4.283
   33SOL    HW2   99   0.792   4.416   4.290
   34SOL     OW  100   3.572   1.853   1.945
   34SOL    HW1  101   3.586   1.928   1.881
   34SOL    HW2  102   3.479   1.816   1.933
   35SOL     OW  103   1.526   1.842   4.372
   35SOL    HW1  104   1.499   1.937   4.380
   35SOL    HW2  105   1.537   1.818   4.275
   36SOL     OW  106   1.567   3.496   1.590
   36SOL    HW1  107   1.625   3.415   1.588
   36SOL    HW2  108   1.471   3.469   1.582
   37SOL     OW  109   5.729   6.125   1.741
   37SOL    HW1  110   5.746   6.105   1.838
   37SOL    HW2  111   5.745   6.222   1.724
   38SOL     OW  112   2.152   3.480   0.072
   38SOL    HW1  113   2.139   3.383   0.093
   38SOL    HW2  114   2.065   3.520   0.040
   39SOL     OW  115   3.722   1.257   0.354
   39SOL    HW1  116   3.783   1.188   0.392
   39SOL    HW2  117   3.705   1.328   0.421
   40SOL     OW  118   3.061   5.534   0.059
   40SOL    HW1  119   3.013   5.490  -0.018
   40SOL    HW2  120   3.121   5.605   0.024
   41SOL     OW  121   3.318   3.581   2.315
   41SOL    HW1  122   3.336   3.642   2.238
   41SOL    HW2  123   3.354   3.490   2.294
   42SOL     OW  124   2.291   0.368   4.158
   42SOL    HW1  125   2.285   0.467   4.172
   42SOL    HW2  126   2.206   0.334   4.119
   43SOL     OW  127   0.111   1.630   2.111
   43SOL    HW1  128   0.074   1.719   2.085
   43SOL    HW2  129   0.042   1.559   2.093
   44SOL     OW  130   1.596   0.147   3.120
   44SOL    HW1  131   1.507   0.187   3.097
   44SOL    HW2  132   1.592   0.048   3.112
   45SOL     OW  133   2.723   4.641   4.417
   45SOL    HW1  134   2.720   4.591   4.503
   45SOL    HW2  135   2.753   4.735   4.434
   46SOL     OW  136   2.769   4.398   1.379
   46SOL    HW1  137   2.864   4.373   1.400
   46SOL    HW2  138   2.763   4.497   1.367
   47SOL     OW  139   0.734   1.336   1.787
   47SOL    HW1  140   0.799   1.266   1.819
   47SOL    HW2  141   0.698   1.386   1.866
   48SOL     OW  142   6.204   5.034   0.476
   48SOL    HW1  143   6.273   5.027   0.548
   48SOL    HW2  144   6.242   5.002   0.389
   49SOL     OW  145   5.802   2.378   0.614
   49SOL    HW1  146   5.810   2.323   0.531
   49SOL    HW2  147   5.866   2.455   0.608
   50SOL     OW  148   5.360   0.493   3.856
   50SOL    HW1  149   5.400   0.553   3.925
   50SOL    HW2  150   5.271   0.460   3.888
   51SOL     OW  151   1.002   5.386   4.284
   51SOL    HW1  152   0.934   5.313   4.273
   51SOL    HW2  153   0.994   5.424   4.376
   52SOL     OW  154   4.429   4.678   3.009
   52SOL    HW1  155   4.405   4.766   2.969
   52SOL    HW2  156   4.501   4.635   2.955
   53SOL     OW  157   1.559   2.634   1.482
   53SOL    HW1  158   1.496   2.579   1.427
   53SOL    HW2  159   1.557   2.728   1.450
   54SOL     OW  160   5.207   3.517   0.918
   54SOL    HW1  161   5.126   3.526   0.860
   54SOL    HW2  162   5.260   3.437   0.889
   55SOL     OW  163   0.514   3.349   3.057
   55SOL    HW1  164   0.417   3.362   3.073
   55SOL    HW2  165   0.531   3.254   3.030
   56SOL     OW  166   2.508   5.525   4.885
   56SOL    HW1  167   2.475   5.484   4.800
   56SOL    HW2  168   2.603   5.555   4.872
   57SOL     OW  169   0.103   4.810   1.717
   57SOL    HW1  170   0.006   4.810   1.695
   57SOL    HW2  171   0.139   4.903   1.707
   58SOL     OW  172   3.419   4.727   4.826
   58SOL    HW1  173   3.321   4.714   4.808
   58SOL    HW2  174   3.469   4.643   4.806
   59SOL     OW  175   2.946   5.785   3.373
   59SOL    HW1  176   2.940   5.688   3.350
   59SOL    HW2  177   2.857   5.828   3.356
   60SOL     OW  178   4.958   6.137   0.700
   60SOL    HW1  179   4.967   6.039   0.714
   60SOL    HW2  180   5.018   6.167   0.626
   61SOL     OW  181   4.201   1.792   1.791
   61SOL    HW1  182   4.236   1.860   1.727
   61SOL    HW2  183   4.192   1.832   1.882
   62SOL     OW  184   4.998  -0.000   3.042
   62SOL    HW1  185   4.977   0.016   2.946
   62SOL    HW2  186   5.049   0.077   3.078
   63SOL     OW  187   0.501   0.136   4.721
   63SOL    HW1  188   0.417   0.082   4.710
   63SOL    HW2  189   0.478   0.233   4.726
   64SOL     OW  190   1.784   2.277   1.977
   64SOL    HW1  191   1.878   2.302   2.000
   64SOL    HW2  192   1.785   2.199   1.914
   65SOL     OW  193   4.957   5.618   1.362
   65SOL    HW1  194   5.012   5.621   1.278
   65SOL    HW2  195   4.998   5.677   1.431
   66SOL     OW  196   5.878   5.474   1.727
   66SOL    HW1  197   5.895   5.433   1.638
   66SOL    HW2  198   5.922   5.564   1.731
   67SOL     OW  199   1.456   0.862   4.183
   67SOL    HW1  200   1.503   0.941   4.142
   67SOL    HW2  201   1.509   0.828   4.260
   68SOL     OW  202   4.947   4.680   3.331
   68SOL    HW1  203   4.883   4.640   3.396
   68SOL    HW2  204   4.940   4.779   3.332
   69SOL     OW  205   0.710   5.614   2.785
   69SOL    HW1  206   0.639   5.685   2.794
   69SOL    HW2  207   0.684   5.551   2.712
   70SOL     OW  208   5.309   3.047   4.570
   70SOL    HW1  209   5.221   3.094   4.582
   70SOL    HW2  210   5.302   2.954   4.605
   71SOL     OW  211   4.550   1.315   2.346
   71SOL    HW1  212   4.561   1.408   2.310
   71SOL    HW2  213   4.470   1.312   2.406
   72SOL     OW  214   5.352   5.685   1.025
   72SOL    HW1  215   5.418   5.746   1.068
   72SOL    HW2  216   5.272   5.736   0.996
   73SOL     OW  217   3.765   2.873   4.223
   73SOL    HW1  218   3.861   2.858   4.201
   73SOL    HW2  219   3.753   2.873   4.322
   74SOL     OW  220   2.256   2.926   0.786
   74SOL    HW1  221   2.190   2.918   0.860
   74SOL    HW2  222   2.208   2.948   0.701
   75SOL     OW  223   0.787   2.070   4.922
   75SOL    HW1  224   0.714   2.022   4.874
   75SOL    HW2  225   0.847   2.114   4.856
   76SOL     OW  226   1.440   2.280   3.114
   76SOL    HW1  227   1.385   2.199   3.133
   76SOL    HW2  228   1.408   2.323   3.029
   77SOL     OW  229   2.508   4.265   1.532
   77SOL    HW1  230   2.496   4.353   1.486
   77SOL    HW2  231   2.559   4.203   1.472
   78SOL     OW  232   3.213   5.111   3.826
   78SOL    HW1  233   3.281   5.071   3.888
   78SOL    HW2  234   3.204   5.053   3.745
   79SOL     OW  235   6.040   6.084   2.235
   79SOL    HW1  236   5.944   6.057   2.235
   79SOL    HW2  237   6.064   6.122   2.325
   80SOL     OW  238   4.646   5.068   1.848
   80SOL    HW1  239   4.678   5.086   1.755
   80SOL    HW2  240   4.557   5.021   1.844
   81SOL     OW  241   3.826   2.294   3.236
   81SOL    HW1  242   3.858   2.240   3.158
   81SOL    HW2  243   3.894   2.364   3.259
   82SOL     OW  244   4.536   1.255   3.647
   82SOL    HW1  245   4.446   1.277   3.611
   82SOL    HW2  246   4.607   1.293   3.588
   83SOL     OW  247   4.529   2.961   2.611
   83SOL    HW1  248   4.621   2.984   2.643
   83SOL    HW2  249   4.491   2.891   2.671
   84SOL     OW  250   5.861   2.969   4.133
   84SOL    HW1  251   5.774   2.946   4.177
   84SOL    HW2  252   5.858   3.064   4.101
   85SOL     OW  253   4.874   4.235   4.311
   85SOL    HW1  254   4.774   4.236   4.317
   85SOL    HW2  255   4.906   4.142   4.295
   86SOL     OW  256   2.523   2.072   4.256
   86SOL    HW1  257   2.617   2.060   4.290
   86SOL    HW2  258   2.482   2.151   4.302
   87SOL     OW  259   4.815   2.476   3.855
   87SOL    HW1  260   4.900   2.437   3.891
   87SOL    HW2  261   4.738   2.444   3.911
   88SOL     OW  262   4.874   2.292   4.194
   88SOL    HW1  263   4.863   2.207   4.246
   88SOL    HW2  264   4.903   2.365   4.256
   89SOL     OW  265   2.034   1.263   0.062
   89SOL    HW1  266   1.990   1.280   0.150
   89SOL    HW2  267   2.063   1.167   0.057
   90SOL     OW  268   0.743   3.377   1.870
   90SOL    HW1  269   0.666   3.402   1.811
   90SOL    HW2  270   0.823   3.430   1.844
   91SOL     OW  271   4.425   1.110   3.951
   91SOL    HW1  272   4.471   1.131   3.865
   91SOL    HW2  273   4.466   1.164   4.025
   92SOL     OW  274   2.517   3.907   3.319
   92SOL    HW1  275   2.429   3.933   3.359
   92SOL    HW2  276   2.507   3.894   3.221
   93SOL     OW  277   2.083   5.364   0.802
   93SOL    HW1  278   2.039   5.372   0.712
   93SOL    HW2  279   2.069   5.448   0.854
   94SOL     OW  280   4.116   5.203   0.967
   94SOL    HW1  281   4.213   5.191   0.946
   94SOL    HW2  282   4.078   5.117   1.001
   95SOL     OW  283   1.751   4.983   0.025
   95SOL    HW1  284   1.704   4.936   0.099
   95SOL    HW2  285   1.700   5.066   0.000
   96SOL     OW  286   4.730   0.897   3.644
   96SOL    HW1  287   4.677   0.813   3.652
   96SOL    HW2  288   4.669   0.976   3.649
   97SOL     OW  289   2.514   6.098   4.162
   97SOL    HW1  290   2.604   6.096   4.119
   97SOL    HW2  291   2.446   6.129   4.095
   98SOL     OW  292   3.334   2.700   1.696
   98SOL    HW1  293   3.274   2.776   1.671
   98SOL    HW2  294   3.427   2.718   1.663
   99SOL     OW  295   4.795   5.887   1.882
   99SOL    HW1  296   4.858   5.810   1.885
   99SOL    HW2  297   4.758   5.904   1.973
  100SOL     OW  298   5.580   5.939   2.711
  100SOL    HW1  299   5.531   5.879   2.774
  100SOL    HW2  300   5.618   6.016   2.761
  101SOL     OW  301   2.765   5.948   3.783
  101SOL    HW1  302   2.788   5.923   3.877
  101SOL    HW2  303   2.816   5.891   3.719
  102SOL     OW  304   4.611   3.845   0.627
  102SOL    HW1  305   4.557   3.895   0.561
  102SOL    HW2  306   4.699   3.820   0.587
  103SOL     OW  307   0.927   2.019   3.094
  103SOL    HW1  308   0.906   2.031   3.191
  103SOL    HW2  309   1.025   2.032   3.079
  104SOL     OW  310   1.927   2.136   4.987
  104SOL    HW1  311   1.954   2.056   4.934
  104SOL    HW2  312   2.004   2.199   4.993
  105SOL     OW  313   6.215   0.083   1.367
  105SOL    HW1  314   6.210   0.179   1.340
  105SOL    HW2  315   6.124   0.048   1.387
  106SOL     OW  316   5.710   5.764   4.588
  106SOL    HW1  317   5.793   5.711   4.604
  106SOL    HW2  318   5.670   5.792   4.676
  107SOL     OW  319   1.734   2.688   2.809
  107SOL    HW1  320   1.798   2.642   2.870
  107SOL    HW2  321   1.724   2.784   2.837
  108SOL     OW  322   2.431   5.685   2.716
  108SOL    HW1  323   2.485   5.768   2.729
  108SOL    HW2  324   2.406   5.647   2.805
  109SOL     OW  325   4.462   0.401   1.062
  109SOL    HW1  326   4.538   0.455   1.025
  109SOL    HW2  327   4.384   0.407   0.999
  110SOL     OW  328   4.526   3.855   2.259
  110SOL    HW1  329   4.450   3.849   2.324
  110SOL    HW2  330   4.542   3.765   2.219
  111SOL     OW  331   3.674   4.919   4.214
  111SOL    HW1  332   3.617   4.997   4.240
  111SOL    HW2  333   3.745   4.950   4.151
  112SOL     OW  334   5.335   4.009   3.280
  112SOL    HW1  335   5.250   4.055   3.305
  112SOL    HW2  336   5.317   3.940   3.210
  113SOL     OW  337   0.575   0.120   0.963
  113SOL    HW1  338   0.639   0.047   0.988
  113SOL    HW2  339   0.595   0.202   1.016
  114SOL     OW  340   0.596   3.029   1.241
  114SOL    HW1  341   0.526   2.964   1.210
  114SOL    HW2  342   0.556   3.090   1.309
  115SOL     OW  343   2.725   4.979   2.633
  115SOL    HW1  344   2.775   4.956   2.550
  115SOL    HW2  345   2.643   4.922   2.639
  116SOL     OW  346   3.200   5.791   4.597
  116SOL    HW1  347   3.174   5.743   4.513
  116SOL    HW2  348   3.249   5.875   4.574
  117SOL     OW  349   5.343   4.113   2.078
  117SOL    HW1  350   5.352   4.080   1.984
  117SOL    HW2  351   5.314   4.209   2.077
  118SOL     OW  352   0.554   2.822   2.249
  118SOL    HW1  353   0.517   2.795   2.337
  118SOL    HW2  354   0.614   2.901   2.261
  119SOL     OW  355   1.587   4.312   1.537
  119SOL    HW1  356   1.668   4.369   1.521
  119SOL    HW2  357   1.581   4.242   1.466
  120SOL     OW  358   2.328   5.684   4.591
  120SOL    HW1  359   2.304   5.752   4.522
  120SOL    HW2  360   2.374   5.729   4.667
  121SOL     OW  361   3.890   0.575   1.556
  121SOL    HW1  362   3.843   0.612   1.636
  121SOL    HW2  363   3.823   0.533   1.495
  122SOL     OW  364   1.753   2.049   1.804
  122SOL    HW1  365   1.757   2.055   1.705
  122SOL    HW2  366   1.658   2.041   1.834
  123SOL     OW  367   1.926   2.179   3.468
  123SOL    HW1  368   1.868   2.240   3.523
  123SOL    HW2  369   2.020   2.213   3.470
  124SOL     OW  370   4.076   3.237   0.881
  124SOL    HW1  371   4.037   3.262   0.970
  124SOL    HW2  372   4.026   3.284   0.808
  125SOL     OW  373   0.024   1.608   2.642
  125SOL    HW1  374  -0.001   1.640   2.733
  125SOL    HW2  375   0.118   1.634   2.621
  126SOL     OW  376   0.018   3.635   3.702
  126SOL    HW1  377   0.044   3.649   3.798
  126SOL    HW2  378   0.065   3.701   3.644
  127SOL     OW  379   4.702   2.059   1.749
  127SOL    HW1  380   4.777   2.117   1.720
  127SOL    HW2  381   4.723   1.963   1.728
  128SOL     OW  382   0.619   5.698   1.008
  128SOL    HW1  383   0.590   5.737   1.096
  128SOL    HW2  384   0.553   5.628   0.979
  129SOL     OW  385   5.968   2.732   3.690
  129SOL    HW1  386   6.066   2.732   3.674
  129SOL    HW2  387   5.931   2.640   3.679
  130SOL     OW  388   2.244   4.015   3.116
  130SOL    HW1  389   2.216   4.106   3.144
  130SOL    HW2  390   2.166   3.968   3.073
  131SOL     OW  391   3.532   1.478   1.346
  131SOL    HW1  392   3.498   1.451   1.436
  131SOL    HW2  393   3.610   1.420   1.321
  132SOL     OW  394   4.474   5.590   0.529
  132SOL    HW1  395   4.384   5.589   0.574
  132SOL    HW2  396   4.546   5.600   0.598
  133SOL     OW  397   0.464   5.007   1.549
  133SOL    HW1  398   0.514   4.988   1.464
  133SOL    HW2  399   0.478   4.932   1.613
  134SOL     OW  400   3.325  -0.002   3.531
  134SOL    HW1  401   3.349  -0.039   3.442
  134SOL    HW2  402   3.378   0.081   3.549
  135SOL     OW  403   1.816   3.242   0.286
  135SOL    HW1  404   1.792   3.327   0.239
  135SOL    HW2  405   1.775   3.165   0.238
  136SOL     OW  406   3.393   2.531   0.935
  136SOL    HW1  407   3.460   2.602   0.917
  136SOL    HW2  408   3.303   2.573   0.949
  137SOL     OW  409   3.100   2.198   3.118
  137SOL    HW1  410   3.187   2.182   3.164
  137SOL    HW2  411   3.036   2.124   3.140
  138SOL     OW  412   1.596   2.390   3.537
  138SOL    HW1  413   1.637   2.407   3.447
  138SOL    HW2  414   1.498   2.406   3.533
  139SOL     OW  415   0.053   2.627   2.349
  139SOL    HW1  416  -0.011   2.551   2.337
  139SOL    HW2  417   0.146   2.592   2.353
  140SOL     OW  418   3.575   3.208   2.452
  140SOL    HW1  419   3.586   3.202   2.353
  140SOL    HW2  420   3.594   3.302   2.482
  141SOL     OW  421   5.608   0.771   4.396
  141SOL    HW1  422   5.590   0.855   4.447
  141SOL    HW2  423   5.681   0.720   4.442
  142SOL     OW  424   0.839   3.813   3.234
  142SOL    HW1  425   0.923   3.764   3.254
  142SOL    HW2  426   0.761   3.760   3.267
  143SOL     OW  427   5.892   5.550   3.020
  143SOL    HW1  428   5.815   5.554   3.083
  143SOL    HW2  429   5.943   5.637   3.024
  144SOL     OW  430   4.189   3.843   0.854
  144SOL    HW1  431   4.256   3.863   0.783
  144SOL    HW2  432   4.231   3.856   0.944
  145SOL     OW  433   1.180   5.256   4.588
  145SOL    HW1  434   1.251   5.293   4.528
  145SOL    HW2  435   1.181   5.156   4.583
  146SOL     OW  436   4.342   4.075   2.154
  146SOL    HW1  437   4.441   4.072   2.169
  146SOL    HW2  438   4.309   3.982   2.138
  147SOL     OW  439   1.615   2.781   4.779
  147SOL    HW1  440   1.644   2.687   4.795
  147SOL    HW2  441   1.535   2.802   4.835
  148SOL     OW  442   4.956  -0.010   2.374
  148SOL    HW1  443   5.043   0.012   2.418
  148SOL    HW2  444   4.894   0.069   2.381
  149SOL     OW  445   0.515   3.489   4.538
  149SOL    HW1  446   0.505   3.392   4.558
  149SOL    HW2  447   0.593   3.503   4.478
  150SOL     OW  448   1.160   4.513   2.556
  150SOL    HW1  449   1.251   4.540   2.525
  150SOL    HW2  450   1.162   4.417   2.583
  151SOL     OW  451   5.775   3.987   1.498
  151SOL    HW1  452   5.779   4.027   1.589
  151SOL    HW2  453   5.808   3.893   1.501
  152SOL     OW  454   3.793   3.707   0.262
  152SOL    HW1  455   3.750   3.742   0.345
  152SOL    HW2  456   3.869   3.767   0.236
  153SOL     OW  457   0.808   3.959   2.999
  153SOL    HW1  458   0.819   3.915   3.088
  153SOL    HW2  459   0.863   3.909   2.931
  154SOL     OW  460   3.726   0.812   4.478
  154SOL    HW1  461   3.656   0.749   4.445
  154SOL    HW2  462   3.692   0.906   4.473
  155SOL     OW  463   4.091   4.632   1.251
  155SOL    HW1  464   4.117   4.678   1.336
  155SOL    HW2  465   4.100   4.533   1.264
  156SOL     OW  466   3.942   5.308   2.732
  156SOL    HW1  467   3.874   5.307   2.659
  156SOL    HW2  468   4.010   5.236   2.716
  157SOL     OW  469   2.109   5.193   2.152
  157SOL    HW1  470   2.167   5.182   2.233
  157SOL    HW2  471   2.017   5.158   2.171
  158SOL     OW  472   3.813   1.167   4.354
  158SOL    HW1  473   3.831   1.264   4.338
  158SOL    HW2  474   3.890   1.126   4.403
  159SOL     OW  475   4.556   5.851   1.726
  159SOL    HW1  476   4.646   5.887   1.750
  159SOL    HW2  477   4.565   5.756   1.696
  160SOL     OW  478   6.059   5.934   2.997
  160SOL    HW1  479   6.007   5.995   2.936
  160SOL    HW2  480   6.128   5.884   2.945
  161SOL     OW  481   1.701   2.549   3.101
  161SOL    HW1  482   1.617   2.576   3.147
  161SOL    HW2  483   1.683   2.472   3.040
  162SOL     OW  484   5.821   2.943   0.066
  162SOL    HW1  485   5.875   3.024   0.089
  162SOL    HW2  486   5.760   2.965  -0.011
  163SOL     OW  487   3.387   6.185   3.269
  163SOL    HW1  488   3.345   6.098   3.293
  163SOL    HW2  489   3.439   6.175   3.184
  164SOL     OW  490   2.709   3.292   1.920
  164SOL    HW1  491   2.809   3.288   1.928
  164SOL    HW2  492   2.672   3.200   1.920
  165SOL     OW  493   2.177   3.810   2.707
  165SOL    HW1  494   2.094   3.784   2.756
  165SOL    HW2  495   2.154   3.827   2.611
  166SOL     OW  496   4.862   5.155   1.998
  166SOL    HW1  497   4.903   5.077   2.046
  166SOL    HW2  498   4.779   5.126   1.951
  167SOL     OW  499   0.408   0.410   1.527
  167SOL    HW1  500   0.398   0.375   1.434
  167SOL    HW2  501   0.501   0.446   1.540
  168SOL     OW  502   2.839   3.216   0.554
  168SOL    HW1  503   2.757   3.159   0.564
  168SOL    HW2  504   2.868   3.215   0.458
  169SOL     OW  505   6.039   4.558   2.953
  169SOL    HW1  506   6.113   4.500   2.987
  169SOL    HW2  507   5.967   4.500   2.914
  170SOL     OW  508   3.685   5.600   0.102
  170SOL    HW1  509   3.626   5.614   0.022
  170SOL    HW2  510   3.777   5.577   0.071
  171SOL     OW  511   1.291   0.317   3.584
  171SOL    HW1  512   1.282   0.221   3.610
  171SOL    HW2  513   1.201   0.351   3.555
  172SOL     OW  514   5.821   1.259   4.900
  172SOL    HW1  515   5.723   1.270   4.882
  172SOL    HW2  516   5.856   1.340   4.946
  173SOL     OW  517   3.578   0.109   1.526
  173SOL    HW1  518   3.663   0.151   1.558
  173SOL    HW2  519   3.578   0.012   1.548
  174SOL     OW  520   5.319   1.752   3.855
  174SOL    HW1  521   5.371   1.667   3.848
  174SOL    HW2  522   5.341   1.811   3.777
  175SOL     OW  523   1.400   5.445   0.376
  175SOL    HW1  524   1.332   5.488   0.435
  175SOL    HW2  525   1.488   5.493   0.386
  176SOL     OW  526   0.705   6.044   3.236
  176SOL    HW1  527   0.712   6.036   3.336
  176SOL    HW2  528   0.695   6.141   3.211
  177SOL     OW  529   2.006   0.482   0.537
  177SOL    HW1  530   1.974   0.388   0.528
  177SOL    HW2  531   1.930   0.541   0.564
  178SOL     OW  532   2.562   2.184   0.025
  178SOL    HW1  533   2.632   2.167   0.095
  178SOL    HW2  534   2.477   2.140   0.053
  179SOL     OW  535   4.083   2.891   2.884
  179SOL    HW1  536   4.037   2.964   2.832
  179SOL    HW2  537   4.126   2.827   2.821
  180SOL     OW  538   0.809   4.953   0.259
  180SOL    HW1  539   0.840   4.859   0.251
  180SOL    HW2  540   0.887   5.015   0.258
  181SOL     OW  541   5.269   0.332   2.595
  181SOL    HW1  542   5.281   0.431   2.601
  181SOL    HW2  543   5.202   0.302   2.663
  182SOL     OW  544   1.564   5.299   3.073
  182SOL    HW1  545   1.557   5.202   3.095
  182SOL    HW2  546   1.483   5.346   3.108
  183SOL     OW  547   1.452   4.639   3.438
  183SOL    HW1  548   1.385   4.688   3.382
  183SOL    HW2  549   1.512   4.704   3.484
  184SOL     OW  550   4.552   1.895   3.724
  184SOL    HW1  551   4.566   1.856   3.633
  184SOL    HW2  552   4.471   1.953   3.723
  185SOL     OW  553   0.707   4.149   3.828
  185SOL    HW1  554   0.677   4.227   3.884
  185SOL    HW2  555   0.744   4.077   3.888
  186SOL     OW  556   4.502   0.145   0.833
  186SOL    HW1  557   4.565   0.068   0.827
  186SOL    HW2  558   4.537   0.212   0.899
  187SOL     OW  559   3.398   2.704   3.458
  187SOL    HW1  560   3.313   2.660   3.488
  187SOL    HW2  561   3.458   2.635   3.416
  188SOL     OW  562   5.532   5.904   1.086
  188SOL    HW1  563   5.591   5.889   1.006
  188SOL    HW2  564   5.510   6.001   1.092
  189SOL     OW  565   1.025   3.693   0.840
  189SOL    HW1  566   0.939   3.644   0.834
  189SOL    HW2  567   1.093   3.649   0.782
  190SOL     OW  568   1.149   5.790   1.729
  190SOL    HW1  569   1.069   5.733   1.711
  190SOL    HW2  570   1.227   5.754   1.676
  191SOL     OW  571   3.939   1.885   2.342
  191SOL    HW1  572   3.873   1.849   2.409
  191SOL    HW2  573   3.911   1.858   2.250
  192SOL     OW  574   1.270   5.540   2.088
  192SOL    HW1  575   1.186   5.585   2.120
  192SOL    HW2  576   1.293   5.574   1.997
  193SOL     OW  577   5.585   5.984   1.552
  193SOL    HW1  578   5.649   6.025   1.617
  193SOL    HW2  579   5.492   5.988   1.590
  194SOL     OW  580   3.080   6.045   2.507
  194SOL    HW1  581   3.095   6.142   2.485
  194SOL    HW2  582   3.029   6.001   2.433
  195SOL     OW  583   5.757   3.493   2.204
  195SOL    HW1  584   5.841   3.447   2.175
  195SOL    HW2  585   5.678   3.435   2.183
  196SOL     OW  586   5.621   5.942   2.349
  196SOL    HW1  587   5.652   5.919   2.442
  196SOL    HW2  588   5.534   5.896   2.332
  197SOL     OW  589   5.921   5.918   1.984
  197SOL    HW1  590   5.976   5.876   2.056
  197SOL    HW2  591   5.982   5.956   1.914
  198SOL     OW  592   2.347   5.680   1.490
  198SOL    HW1  593   2.299   5.768   1.491
  198SOL    HW2  594   2.435   5.690   1.444
  199SOL     OW  595   2.928   2.114   2.216
  199SOL    HW1  596   2.941   2.167   2.132
  199SOL    HW2  597   2.842   2.141   2.259
  200SOL     OW  598   3.003   4.680   4.571
  200SOL    HW1  599   3.042   4.607   4.516
  200SOL    HW2  600   3.026   4.769   4.530
  201SOL     OW  601   4.574   3.650   3.142
  201SOL    HW1  602   4.627   3.731   3.116
  201SOL    HW2  603   4.562   3.590   3.062
  202SOL     OW  604   5.702   5.824   1.352
  202SOL    HW1  605   5.665   5.881   1.425
  202SOL    HW2  606   5.649   5.838   1.268
  203SOL     OW  607   1.166   3.509   4.612
  203SOL    HW1  608   1.074   3.472   4.599
  203SOL    HW2  609   1.228   3.435   4.638
  204SOL     OW  610   5.593   3.526   1.731
  204SOL    HW1  611   5.530   3.452   1.755
  204SOL    HW2  612   5.683   3.488   1.712
  205SOL     OW  613   1.821   1.727   1.789
  205SOL    HW1  614   1.805   1.823   1.809
  205SOL    HW2  615   1.901   1.695   1.841
  206SOL     OW  616   4.142   4.737   4.358
  206SOL    HW1  617   4.089   4.665   4.403
  206SOL    HW2  618   4.240   4.715   4.365
  207SOL     OW  619   2.077   3.129   4.352
  207SOL    HW1  620   2.097   3.226   4.343
  207SOL    HW2  621   1.978   3.114   4.347
  208SOL     OW  622   0.828   2.248   3.867
  208SOL    HW1  623   0.729   2.257   3.869
  208SOL    HW2  624   0.853   2.162   3.824
  209SOL     OW  625   0.142   2.822   3.958
  209SOL    HW1  626   0.077   2.759   4.002
  209SOL    HW2  627   0.235   2.797   3.984
  210SOL     OW  628   2.710   0.309   1.528
  210SOL    HW1  629   2.720   0.243   1.453
  210SOL    HW2  630   2.800   0.324   1.570
  211SOL     OW  631   0.432   4.844   1.782
  211SOL    HW1  632   0.446   4.923   1.842
  211SOL    HW2  633   0.336   4.816   1.786
  212SOL     OW  634   1.773   4.622   0.842
  212SOL    HW1  635   1.746   4.691   0.909
  212SOL    HW2  636   1.833   4.663   0.775
  213SOL     OW  637   1.097   1.963   1.697
  213SOL    HW1  638   1.115   2.059   1.720
  213SOL    HW2  639   1.023   1.928   1.755
  214SOL     OW  640   0.240   0.622   1.900
  214SOL    HW1  641   0.305   0.563   1.852
  214SOL    HW2  642   0.177   0.663   1.835
  215SOL     OW  643   6.007   0.384   1.263
  215SOL    HW1  644   6.079   0.421   1.204
  215SOL    HW2  645   5.927   0.363   1.208
  216SOL     OW  646   4.350   5.794   0.084
  216SOL    HW1  647   4.355   5.879   0.135
  216SOL    HW2  648   4.420   5.731   0.118
  217SOL     OW  649   3.523   2.930   1.440
  217SOL    HW1  650   3.468   2.992   1.384
  217SOL    HW2  651   3.575   2.869   1.381
  218SOL     OW  652   3.256   4.784   2.649
  218SOL    HW1  653   3.174   4.841   2.648
  218SOL    HW2  654   3.231   4.688   2.662
  219SOL     OW  655   2.733   5.729   2.214
  219SOL    HW1  656   2.764   5.689   2.127
  219SOL    HW2  657   2.660   5.794   2.196
  220SOL     OW  658   3.596   5.177   4.417
  220SOL    HW1  659   3.609   5.249   4.485
  220SOL    HW2  660   3.500   5.173   4.390
  221SOL     OW  661   3.149   3.696   3.971
  221SOL    HW1  662   3.065   3.748   3.986
  221SOL    HW2  663   3.193   3.678   4.059
  222SOL     OW  664   4.600   4.939   0.278
  222SOL    HW1  665   4.568   5.024   0.237
  222SOL    HW2  666   4.553   4.925   0.365
  223SOL     OW  667   1.742   2.227   4.224
  223SOL    HW1  668   1.706   2.222   4.131
  223SOL    HW2  669   1.726   2.319   4.262
  224SOL     OW  670   1.526   5.896   2.563
  224SOL    HW1  671   1.511   5.884   2.465
  224SOL    HW2  672   1.479   5.823   2.613
  225SOL     OW  673   4.752   3.402   1.597
  225SOL    HW1  674   4.690   3.374   1.523
  225SOL    HW2  675   4.709   3.384   1.685
  226SOL     OW  676   0.226   4.640   1.537
  226SOL    HW1  677   0.255   4.556   1.583
  226SOL    HW2  678   0.181   4.700   1.603
  227SOL     OW  679   0.531   2.683   1.983
  227SOL    HW1  680   0.614   2.637   1.953
  227SOL    HW2  681   0.549   2.733   2.068
  228SOL     OW  682   0.299   1.056   4.938
  228SOL    HW1  683   0.234   0.997   4.890
  228SOL    HW2  684   0.314   1.139   4.885
  229SOL     OW  685   0.853   5.937   0.909
  229SOL    HW1  686   0.777   5.991   0.945
  229SOL    HW2  687   0.836   5.840   0.925
  230SOL     OW  688   4.571   5.142   0.755
  230SOL    HW1  689   4.660   5.176   0.725
  230SOL    HW2  690   4.535   5.078   0.687
  231SOL     OW  691   3.093   0.722   2.219
  231SOL    HW1  692   3.007   0.740   2.268
  231SOL    HW2  693   3.155   0.799   2.231
  232SOL     OW  694   5.349   4.957   3.407
  232SOL    HW1  695   5.380   4.927   3.497
  232SOL    HW2  696   5.348   4.880   3.344
  233SOL     OW  697   0.518   3.175   4.428
  233SOL    HW1  698   0.431   3.212   4.397
  233SOL    HW2  699   0.558   3.119   4.356
  234SOL     OW  700   2.801   4.257   3.838
  234SOL    HW1  701   2.844   4.342   3.870
  234SOL    HW2  702   2.703   4.261   3.858
  235SOL     OW  703   0.495   5.124   1.956
  235SOL    HW1  704   0.571   5.175   1.996
  235SOL    HW2  705   0.411   5.178   1.964
  236SOL     OW  706   2.962   0.016   4.652
  236SOL    HW1  707   2.866   0.043   4.660
  236SOL    HW2  708   3.011   0.044   4.735
  237SOL     OW  709   4.630   4.497   3.184
  237SOL    HW1  710   4.559   4.564   3.163
  237SOL    HW2  711   4.618   4.463   3.277
  238SOL     OW  712   3.268   2.216   4.002
  238SOL    HW1  713   3.205   2.294   4.003
  238SOL    HW2  714   3.232   2.144   3.943
  239SOL     OW  715   3.190   0.545   0.672
  239SOL    HW1  716   3.265   0.511   0.616
  239SOL    HW2  717   3.202   0.514   0.766
  240SOL     OW  718   5.223   5.169   0.820
  240SOL    HW1  719   5.310   5.136   0.782
  240SOL    HW2  720   5.165   5.091   0.842
  241SOL     OW  721   2.899   1.411   1.753
  241SOL    HW1  722   2.868   1.415   1.848
  241SOL    HW2  723   2.837   1.353   1.700
  242SOL     OW  724   3.907   3.496   3.487
  242SOL    HW1  725   3.921   3.587   3.526
  242SOL    HW2  726   3.833   3.499   3.420
  243SOL     OW  727   4.041   2.020   0.735
  243SOL    HW1  728   4.014   1.978   0.648
  243SOL    HW2  729   4.011   2.116   0.736
  244SOL     OW  730   6.314   3.271   4.082
  244SOL    HW1  731   6.244   3.321   4.031
  244SOL    HW2  732   6.314   3.175   4.054
  245SOL     OW  733   0.957   3.892   4.793
  245SOL    HW1  734   1.009   3.963   4.840
  245SOL    HW2  735   1.006   3.805   4.800
  246SOL     OW  736   4.523   3.580   2.246
  246SOL    HW1  737   4.444   3.538   2.201
  246SOL    HW2  738   4.561   3.516   2.312
  247SOL     OW  739   4.839   4.911   4.676
  247SOL    HW1  740   4.861   4.939   4.770
  247SOL    HW2  741   4.908   4.946   4.614
  248SOL     OW  742   5.525   1.384   4.470
  248SOL    HW1  743   5.616   1.409   4.437
  248SOL    HW2  744   5.483   1.319   4.406
  249SOL     OW  745   1.794   3.754   4.486
  249SOL    HW1  746   1.773   3.804   4.571
  249SOL    HW2  747   1.748   3.666   4.487
  250SOL     OW  748   4.741   2.049   0.898
  250SOL    HW1  749   4.750   2.142   0.864
  250SOL    HW2  750   4.752   2.048   0.997
  251SOL     OW  751   3.936   1.135   0.101
  251SOL    HW1  752   3.926   1.055   0.042
  251SOL    HW2  753   3.847   1.160   0.138
  252SOL     OW  754   2.700   3.690   3.368
  252SOL    HW1  755   2.684   3.690   3.467
  252SOL    HW2  756   2.650   3.766   3.326
  253SOL     OW  757   1.514   1.595   0.050
  253SOL    HW1  758   1.484   1.615   0.143
  253SOL    HW2  759   1.435   1.594  -0.011
  254SOL     OW  760   2.332   5.411   1.398
  254SOL    HW1  761   2.329   5.336   1.464
  254SOL    HW2  762   2.322   5.498   1.446
  255SOL     OW  763   2.434   1.782   0.617
  255SOL    HW1  764   2.347   1.762   0.662
  255SOL    HW2  765   2.500   1.709   0.638
  256SOL     OW  766   1.939   1.937   3.981
  256SOL    HW1  767   2.008   1.871   3.954
  256SOL    HW2  768   1.853   1.890   4.000
  257SOL     OW  769   0.581   5.082   0.380
  257SOL    HW1  770   0.640   5.023   0.325
  257SOL    HW2  771   0.637   5.144   0.435
  258SOL     OW  772   3.103   2.724   4.477
  258SOL    HW1  773   3.122   2.662   4.553
  258SOL    HW2  774   3.111   2.818   4.508
  259SOL     OW  775   0.325   2.893   2.002
  259SOL    HW1  776   0.353   2.804   1.964
  259SOL    HW2  777   0.370   2.907   2.090
  260SOL     OW  778   4.903   0.497   2.807
  260SOL    HW1  779   4.845   0.578   2.811
  260SOL    HW2  780   4.927   0.477   2.712
  261SOL     OW  781   5.752   3.560   3.850
  261SOL    HW1  782   5.681   3.630   3.853
  261SOL    HW2  783   5.838   3.598   3.885
  262SOL     OW  784   4.442   4.902   0.518
  262SOL    HW1  785   4.350   4.940   0.511
  262SOL    HW2  786   4.437   4.806   0.545
  263SOL     OW  787   6.221   4.291   2.978
  263SOL    HW1  788   6.296   4.251   3.031
  263SOL    HW2  789   6.192   4.226   2.907
  264SOL     OW  790   0.450   0.114   2.922
  264SOL    HW1  791   0.370   0.160   2.961
  264SOL    HW2  792   0.457   0.022   2.959
  265SOL     OW  793   0.745   0.800   0.432
  265SOL    HW1  794   0.723   0.718   0.486
  265SOL    HW2  795   0.720   0.882   0.484
  266SOL     OW  796   4.396   4.999   1.736
  266SOL    HW1  797   4.384   4.942   1.654
  266SOL    HW2  798   4.408   5.094   1.708
  267SOL     OW  799   3.671   5.970   1.450
  267SOL    HW1  800   3.631   5.895   1.398
  267SOL    HW2  801   3.624   6.055   1.427
  268SOL     OW  802   1.721   4.839   1.024
  268SOL    HW1  803   1.673   4.878   1.102
  268SOL    HW2  804   1.800   4.896   1.002
  269SOL     OW  805   1.522   2.037   2.501
  269SOL    HW1  806   1.503   1.956   2.445
  269SOL    HW2  807   1.620   2.052   2.504
  270SOL     OW  808   0.928   2.587   4.763
  270SOL    HW1  809   0.931   2.628   4.854
  270SOL    HW2  810   0.833   2.581   4.731
  271SOL     OW  811   5.506   1.478   4.194
  271SOL    HW1  812   5.454   1.519   4.268
  271SOL    HW2  813   5.446   1.461   4.116
  272SOL     OW  814   2.262   0.474   0.835
  272SOL    HW1  815   2.163   0.471   0.842
  272SOL    HW2  816   2.289   0.547   0.773
  273SOL     OW  817   1.201   5.024   0.504
  273SOL    HW1  818   1.218   5.107   0.451
  273SOL    HW2  819   1.253   5.028   0.590
  274SOL     OW  820   3.445   4.571   3.334
  274SOL    HW1  821   3.502   4.542   3.258
  274SOL    HW2  822   3.369   4.507   3.345
  275SOL     OW  823   3.629   5.770   1.259
  275SOL    HW1  824   3.719   5.728   1.269
  275SOL    HW2  825   3.568   5.706   1.211
  276SOL     OW  826   3.333   4.173   0.417
  276SOL    HW1  827   3.292   4.219   0.496
  276SOL    HW2  828   3.262   4.125   0.366
  277SOL     OW  829   3.086   5.360   3.821
  277SOL    HW1  830   3.114   5.401   3.734
  277SOL    HW2  831   3.123   5.267   3.827
  278SOL     OW  832   2.587   6.301   2.154
  278SOL    HW1  833   2.675   6.347   2.159
  278SOL    HW2  834   2.566   6.256   2.241
  279SOL     OW  835   2.404   5.002   3.007
  279SOL    HW1  836   2.457   5.032   2.928
  279SOL    HW2  837   2.365   4.912   2.989
  280SOL     OW  838   5.612   4.389   2.433
  280SOL    HW1  839   5.678   4.453   2.472
  280SOL    HW2  840   5.613   4.304   2.486
  281SOL     OW  841   4.007   0.277   1.322
  281SOL    HW1  842   3.968   0.364   1.351
  281SOL    HW2  843   3.937   0.223   1.275
  282SOL     OW  844   4.983   0.769   0.277
  282SOL    HW1  845   4.938   0.704   0.216
  282SOL    HW2  846   4.914   0.828   0.320
  283SOL     OW  847   3.531   5.044   0.488
  283SOL    HW1  848   3.450   5.046   0.431
  283SOL    HW2  849   3.505   5.054   0.584
  284SOL     OW  850   1.588   4.660   2.356
  284SOL    HW1  851   1.620   4.755   2.353
  284SOL    HW2  852   1.516   4.647   2.288
  285SOL     OW  853   4.554   3.017   3.052
  285SOL    HW1  854   4.519   3.108   3.074
  285SOL    HW2  855   4.544   2.957   3.132
  286SOL     OW  856   5.737   3.287   1.622
  286SOL    HW1  857   5.713   3.321   1.531
  286SOL    HW2  858   5.748   3.188   1.619
  287SOL     OW  859   0.177   1.609   4.689
  287SOL    HW1  860   0.087   1.599   4.647
  287SOL    HW2  861   0.183   1.698   4.734
  288SOL     OW  862   6.067   3.854   0.775
  288SOL    HW1  863   6.138   3.923   0.763
  288SOL    HW2  864   6.004   3.883   0.847
  289SOL     OW  865   3.217   3.697   0.131
  289SOL    HW1  866   3.261   3.657   0.211
  289SOL    HW2  867   3.139   3.640   0.104
  290SOL     OW  868   4.435   5.379   4.867
  290SOL    HW1  869   4.429   5.296   4.924
  290SOL    HW2  870   4.521   5.426   4.887
  291SOL     OW  871   2.042   5.940   1.137
  291SOL    HW1  872   2.133   5.981   1.140
  291SOL    HW2  873   1.973   6.011   1.146
  292SOL     OW  874   1.386   3.826   0.878
  292SOL    HW1  875   1.379   3.855   0.783
  292SOL    HW2  876   1.297   3.793   0.909
  293SOL     OW  877   6.073   0.688   2.268
  293SOL    HW1  878   6.159   0.701   2.318
  293SOL    HW2  879   6.003   0.656   2.331
  294SOL     OW  880   1.189   3.529   0.662
  294SOL    HW1  881   1.277   3.543   0.617
  294SOL    HW2  882   1.169   3.432   0.668
  295SOL     OW  883   3.440   5.037   3.378
  295SOL    HW1  884   3.362   5.050   3.317
  295SOL    HW2  885   3.489   4.954   3.353
  296SOL     OW  886   0.517   3.796   4.726
  296SOL    HW1  887   0.573   3.870   4.690
  296SOL    HW2  888   0.479   3.743   4.651
  297SOL     OW  889   2.624   6.203   3.831
  297SOL    HW1  890   2.664   6.118   3.797
  297SOL    HW2  891   2.693   6.276   3.827
  298SOL     OW  892   5.739   6.098   3.286
  298SOL    HW1  893   5.839   6.091   3.283
  298SOL    HW2  894   5.713   6.191   3.310
  299SOL     OW  895   0.895   1.345   2.854
  299SOL    HW1  896   0.932   1.438   2.855
  299SOL    HW2  897   0.957   1.284   2.805
  300SOL     OW  898   5.979   2.489   2.269
  300SOL    HW1  899   5.888   2.474   2.306
  300SOL    HW2  900   5.972   2.522   2.174
  301SOL     OW  901   1.092   5.566   2.400
  301SOL    HW1  902   1.167   5.501   2.387
  301SOL    HW2  903   1.116   5.630   2.473
  302SOL     OW  904   3.684   0.294   2.559
  302SOL    HW1  905   3.620   0.241   2.503
  302SOL    HW2  906   3.720   0.236   2.632
  303SOL     OW  907   5.879   4.414   3.963
  303SOL    HW1  908   5.877   4.458   3.873
  303SOL    HW2  909   5.807   4.344   3.967
  304SOL     OW  910   2.268   1.626   1.004
  304SOL    HW1  911   2.187   1.568   0.990
  304SOL    HW2  912   2.332   1.579   1.064
  305SOL     OW  913   0.288   3.873   3.790
  305SOL    HW1  914   0.248   3.865   3.698
  305SOL    HW2  915   0.382   3.840   3.788
  306SOL     OW  916   4.853   1.475   4.502
  306SOL    HW1  917   4.787   1.538   4.544
  306SOL    HW2  918   4.903   1.427   4.574
  307SOL     OW  919   5.718   5.333   1.453
  307SOL    HW1  920   5.801   5.321   1.398
  307SOL    HW2  921   5.711   5.428   1.481
  308SOL     OW  922   1.446   5.587   4.454
  308SOL    HW1  923   1.531   5.594   4.400
  308SOL    HW2  924   1.368   5.606   4.395
  309SOL     OW  925   5.253   3.272   2.086
  309SOL    HW1  926   5.218   3.303   1.997
  309SOL    HW2  927   5.176   3.251   2.146
  310SOL     OW  928   2.112   6.132   2.769
  310SOL    HW1  929   2.076   6.040   2.785
  310SOL    HW2  930   2.039   6.199   2.780
  311SOL     OW  931   2.586   2.701   2.836
  311SOL    HW1  932   2.605   2.721   2.740
  311SOL    HW2  933   2.648   2.754   2.894
  312SOL     OW  934   1.780   5.381   2.667
  312SOL    HW1  935   1.729   5.391   2.752
  312SOL    HW2  936   1.797   5.471   2.628
  313SOL     OW  937   0.088   5.073   3.794
  313SOL    HW1  938   0.024   5.144   3.766
  313SOL    HW2  939   0.182   5.109   3.788
  314SOL     OW  940   4.694   5.341   4.126
  314SOL    HW1  941   4.774   5.335   4.066
  314SOL    HW2  942   4.673   5.438   4.143
  315SOL     OW  943   3.290   4.184   0.054
  315SOL    HW1  944   3.386   4.169   0.079
  315SOL    HW2  945   3.253   4.102   0.011
  316SOL     OW  946   5.888   1.330   0.270
  316SOL    HW1  947   5.816   1.332   0.340
  316SOL    HW2  948   5.971   1.291   0.309
  317SOL     OW  949   1.544   6.247   1.718
  317SOL    HW1  950   1.507   6.159   1.748
  317SOL    HW2  951   1.478   6.319   1.738
  318SOL     OW  952   4.647   3.737   2.512
  318SOL    HW1  953   4.647   3.756   2.414
  318SOL    HW2  954   4.675   3.819   2.562
  319SOL     OW  955   4.723   1.600   1.308
  319SOL    HW1  956   4.632   1.615   1.270
  319SOL    HW2  957   4.790   1.598   1.234
  320SOL     OW  958   5.711   3.287   3.847
  320SOL    HW1  959   5.733   3.263   3.752
  320SOL    HW2  960   5.720   3.386   3.859
  321SOL     OW  961   1.400   0.768   2.458
  321SOL    HW1  962   1.424   0.672   2.450
  321SOL    HW2  963   1.302   0.777   2.476
  322SOL     OW  964   4.562   5.720   4.827
  322SOL    HW1  965   4.563   5.735   4.728
  322SOL    HW2  966   4.654   5.700   4.859
  323SOL     OW  967   3.362   1.783   0.636
  323SOL    HW1  968   3.291   1.760   0.702
  323SOL    HW2  969   3.449   1.794   0.683
  324SOL     OW  970   0.402   3.035   0.423
  324SOL    HW1  971   0.404   3.129   0.388
  324SOL    HW2  972   0.323   3.023   0.483
  325SOL     OW  973   3.900   1.467   3.379
  325SOL    HW1  974   3.811   1.465   3.425
  325SOL    HW2  975   3.948   1.382   3.397
  326SOL     OW  976   2.878   3.102   1.271
  326SOL    HW1  977   2.960   3.053   1.300
  326SOL    HW2  978   2.891   3.201   1.284
  327SOL     OW  979   2.337   2.423   3.470
  327SOL    HW1  980   2.243   2.429   3.437
  327SOL    HW2  981   2.400   2.445   3.395
  328SOL     OW  982   1.668   3.345   2.042
  328SOL    HW1  983   1.596   3.370   2.106
  328SOL    HW2  984   1.707   3.257   2.069
  329SOL     OW  985   0.705   0.532   1.448
  329SOL    HW1  986   0.803   0.530   1.427
  329SOL    HW2  987   0.655   0.572   1.372
  330SOL     OW  988   3.756   0.804   3.568
  330SOL    HW1  989   3.700   0.776   3.647
  330SOL    HW2  990   3.832   0.859   3.600
  331SOL     OW  991   5.817   0.079   1.716
  331SOL    HW1  992   5.904   0.086   1.766
  331SOL    HW2  993   5.782   0.171   1.697
  332SOL     OW  994   0.725   4.376   1.696
  332SOL    HW1  995   0.768   4.370   1.786
  332SOL    HW2  996   0.734   4.289   1.648
  333SOL     OW  997   1.030   4.886   1.160
  333SOL    HW1  998   1.086   4.969   1.154
  333SOL    HW2  999   1.077   4.811   1.115
  334SOL     OW 1000   5.688   2.464   0.142
  334SOL    HW1 1001   5.648   2.539   0.194
  334SOL    HW2 1002   5.784   2.485   0.121
  335SOL     OW 1003   0.079   1.509   1.383
  335SOL    HW1 1004   0.045   1.452   1.308
  335SOL    HW2 1005   0.173   1.481   1.405
  336SOL     OW 1006   2.571   3.068   3.268
  336SOL    HW1 1007   2.635   3.138   3.238
  336SOL    HW2 1008   2.572   3.062   3.368
  337SOL     OW 1009   1.214   5.936   3.361
  337SOL    HW1 1010   1.305   5.895   3.360
  337SOL    HW2 1011   1.145   5.864   3.355
  338SOL     OW 1012   3.734   5.436   3.402
  338SOL    HW1 1013   3.778   5.346   3.399
  338SOL    HW2 1014   3.803   5.508   3.394
  339SOL     OW 1015   1.623   1.444   1.259
  339SOL    HW1 1016   1.543   1.387   1.280
  339SOL    HW2 1017   1.675   1.460   1.343
  340SOL     OW 1018   1.185   5.964   0.274
  340SOL    HW1 1019   1.165   5.966   0.176
  340SOL    HW2 1020   1.203   6.057   0.305
  341SOL     OW 1021   3.514   0.895   1.283
  341SOL    HW1 1022   3.610   0.925   1.283
  341SOL    HW2 1023   3.502   0.824   1.352
  342SOL     OW 1024   5.420   0.128   2.469
  342SOL    HW1 1025   5.374   0.206   2.511
  342SOL    HW2 1026   5.375   0.043   2.496
  343SOL     OW 1027   4.268   4.319   2.020
  343SOL    HW1 1028   4.279   4.257   1.942
  343SOL    HW2 1029   4.291   4.271   2.105
  344SOL     OW 1030   0.777   0.780   3.898
  344SOL    HW1 1031   0.833   0.797   3.979
  344SOL    HW2 1032   0.814   0.702   3.847
  345SOL     OW 1033   0.066   5.258   4.889
  345SOL    HW1 1034   0.163   5.243   4.908
  345SOL    HW2 1035   0.042   5.214   4.802
  346SOL     OW 1036   2.916   4.564   4.224
  346SOL    HW1 1037   2.875   4.620   4.153
  346SOL    HW2 1038   2.853   4.557   4.302
  347SOL     OW 1039   0.885   4.652   3.045
  347SOL    HW1 1040   0.794   4.662   3.085
  347SOL    HW2 1041   0.954   4.684   3.110
  348SOL     OW 1042   3.614   5.655   0.365
  348SOL    HW1 1043   3.652   5.631   0.276
  348SOL    HW2 1044   3.514   5.648   0.361
  349SOL     OW 1045   1.734   1.375   0.972
  349SOL    HW1 1046   1.696   1.413   1.056
  349SOL    HW2 1047   1.723   1.441   0.898
  350SOL     OW 1048   4.407   3.885   1.801
  350SOL    HW1 1049   4.479   3.923   1.743
  350SOL    HW2 1050   4.318   3.904   1.761
  351SOL     OW 1051   5.058   4.807   4.461
  351SOL    HW1 1052   4.965   4.772   4.474
  351SOL    HW2 1053   5.101   4.762   4.383
  352SOL     OW 1054   3.200   1.819   1.143
  352SOL    HW1 1055   3.197   1.721   1.165
  352SOL    HW2 1056   3.290   1.842   1.107
  353SOL     OW 1057   0.708   6.241   0.209
  353SOL    HW1 1058   0.627   6.235   0.267
  353SOL    HW2 1059   0.691   6.192   0.123
  354SOL     OW 1060   4.351   3.055   1.204
  354SOL    HW1 1061   4.386   2.977   1.256
  354SOL    HW2 1062   4.342   3.030   1.108
  355SOL     OW 1063   3.819   5.060   3.889
  355SOL    HW1 1064   3.886   5.013   3.832
  355SOL    HW2 1065   3.816   5.157   3.863
  356SOL     OW 1066   3.217   2.800   0.340
  356SOL    HW1 1067   3.256   2.714   0.306
  356SOL    HW2 1068   3.267   2.830   0.421
  357SOL     OW 1069   0.636   3.671   0.935
  357SOL    HW1 1070   0.582   3.671   0.851
  357SOL    HW2 1071   0.687   3.757   0.941
  358SOL     OW 1072   3.564   2.443   0.409
  358SOL    HW1 1073   3.479   2.394   0.427
  358SOL    HW2 1074   3.580   2.445   0.310
  359SOL     OW 1075   2.933   3.540   3.104
  359SOL    HW1 1076   2.877   3.585   3.174
  359SOL    HW2 1077   2.997   3.477   3.147
  360SOL     OW 1078   1.499   2.085   0.288
  360SOL    HW1 1079   1.461   2.171   0.320
  360SOL    HW2 1080   1.450   2.009   0.330
  361SOL     OW 1081   0.134   5.995   1.823
  361SOL    HW1 1082   0.069   6.062   1.785
  361SOL    HW2 1083   0.114   5.982   1.920
  362SOL     OW 1084   4.695   4.762   3.825
  362SOL    HW1 1085   4.703   4.847   3.877
  362SOL    HW2 1086   4.619   4.708   3.859
  363SOL     OW 1087   1.972   1.938   3.340
  363SOL    HW1 1088   1.953   2.025   3.386
  363SOL    HW2 1089   1.888   1.883   3.335
  364SOL     OW 1090   5.985   5.698   1.503
  364SOL    HW1 1091   6.030   5.690   1.414
  364SOL    HW2 1092   5.911   5.764   1.496
  365SOL     OW 1093   2.911   5.739   0.877
  365SOL    HW1 1094   2.905   5.833   0.843
  365SOL    HW2 1095   2.865   5.677   0.814
  366SOL     OW 1096   3.353   1.124   2.338
  366SOL    HW1 1097   3.441   1.148   2.296
  366SOL    HW2 1098   3.305   1.207   2.365
  367SOL     OW 1099   3.336   0.498   3.331
  367SOL    HW1 1100   3.294   0.557   3.399
  367SOL    HW2 1101   3.379   0.420   3.376
  368SOL     OW 1102   4.500   3.783   4.617
  368SOL    HW1 1103   4.431   3.769   4.546
  368SOL    HW2 1104   4.591   3.761   4.580
  369SOL     OW 1105   0.457   1.003   3.670
  369SOL    HW1 1106   0.543   0.969   3.632
  369SOL    HW2 1107   0.446   1.100   3.646
  370SOL     OW 1108   4.718   5.478   3.508
  370SOL    HW1 1109   4.623   5.446   3.506
  370SOL    HW2 1110   4.723   5.570   3.470
  371SOL     OW 1111   4.802   2.686   0.911
  371SOL    HW1 1112   4.710   2.704   0.878
  371SOL    HW2 1113   4.833   2.597   0.878
  372SOL     OW 1114   3.665   5.866   2.920
  372SOL    HW1 1115   3.759   5.900   2.920
  372SOL    HW2 1116   3.666   5.767   2.907
  373SOL     OW 1117   5.238   4.289   0.157
  373SOL    HW1 1118   5.151   4.243   0.172
  373SOL    HW2 1119   5.257   4.351   0.233
  374SOL     OW 1120   1.131   2.737   4.572
  374SOL    HW1 1121   1.072   2.686   4.635
  374SOL    HW2 1122   1.214   2.767   4.620
  375SOL     OW 1123   1.401   4.353   1.751
  375SOL    HW1 1124   1.305   4.328   1.736
  375SOL    HW2 1125   1.453   4.336   1.667
  376SOL     OW 1126   4.027   2.664   4.280
  376SOL    HW1 1127   4.098   2.601   4.310
  376SOL    HW2 1128   3.968   2.619   4.213
  377SOL     OW 1129   2.044   3.324   3.968
  377SOL    HW1 1130   2.080   3.418   3.975
  377SOL    HW2 1131   2.053   3.292   3.874
  378SOL     OW 1132   4.874   2.588   0.258
  378SOL    HW1 1133   4.799   2.629   0.207
  378SOL    HW2 1134   4.895   2.498   0.221
  379SOL     OW 1135   3.192   1.932   3.825
  379SOL    HW1 1136   3.290   1.926   3.806
  379SOL    HW2 1137   3.153   1.839   3.828
  380SOL     OW 1138   2.228   1.134   2.273
  380SOL    HW1 1139   2.253   1.154   2.178
  380SOL    HW2 1140   2.233   1.035   2.289
  381SOL     OW 1141   1.951   5.662   0.606
  381SOL    HW1 1142   2.012   5.663   0.686
  381SOL    HW2 1143   1.904   5.750   0.598
  382SOL     OW 1144   6.095   2.589   0.465
  382SOL    HW1 1145   6.189   2.622   0.461
  382SOL    HW2 1146   6.062   2.572   0.373
  383SOL     OW 1147   2.944   3.799   4.477
  383SOL    HW1 1148   2.989   3.712   4.497
  383SOL    HW2 1149   2.866   3.811   4.539
  384SOL     OW 1150   3.457   0.211   2.057
  384SOL    HW1 1151   3.364   0.237   2.031
  384SOL    HW2 1152   3.475   0.241   2.151
  385SOL     OW 1153   3.377   1.574   1.598
  385SOL    HW1 1154   3.284   1.544   1.577
  385SOL    HW2 1155   3.400   1.655   1.544
  386SOL     OW 1156   1.345   2.386   2.876
  386SOL    HW1 1157   1.334   2.485   2.863
  386SOL    HW2 1158   1.348   2.341   2.786
  387SOL     OW 1159   3.840   5.843   0.415
  387SOL    HW1 1160   3.754   5.792   0.427
  387SOL    HW2 1161   3.829   5.935   0.453
  388SOL     OW 1162   3.570   4.889   2.781
  388SOL    HW1 1163   3.497   4.836   2.738
  388SOL    HW2 1164   3.565   4.984   2.750
  389SOL     OW 1165   0.387   1.340   2.907
  389SOL    HW1 1166   0.322   1.340   2.982
  389SOL    HW2 1167   0.340   1.319   2.821
  390SOL     OW 1168   3.558   4.122   1.721
  390SOL    HW1 1169   3.595   4.211   1.746
  390SOL    HW2 1170   3.538   4.070   1.804
  391SOL     OW 1171   4.619   1.946   2.473
  391SOL    HW1 1172   4.593   2.013   2.543
  391SOL    HW2 1173   4.713   1.917   2.488
  392SOL     OW 1174   4.263   3.291   1.316
  392SOL    HW1 1175   4.350   3.338   1.336
  392SOL    HW2 1176   4.282   3.201   1.277
  393SOL     OW 1177   5.309   4.465   0.623
  393SOL    HW1 1178   5.234   4.453   0.689
  393SOL    HW2 1179   5.389   4.503   0.670
  394SOL     OW 1180   5.138   6.262   0.505
  394SOL    HW1 1181   5.152   6.347   0.556
  394SOL    HW2 1182   5.179   6.270   0.415
  395SOL     OW 1183   3.645   2.210   1.590
  395SOL    HW1 1184   3.590   2.249   1.516
  395SOL    HW2 1185   3.716   2.276   1.616
  396SOL     OW 1186   4.323   0.403   0.795
  396SOL    HW1 1187   4.379   0.335   0.747
  396SOL    HW2 1188   4.232   0.365   0.811
  397SOL     OW 1189   0.275   1.266   2.662
  397SOL    HW1 1190   0.178   1.259   2.639
  397SOL    HW2 1191   0.329   1.220   2.592
  398SOL     OW 1192   6.267   2.680   1.264
  398SOL    HW1 1193   6.307   2.770   1.243
  398SOL    HW2 1194   6.167   2.687   1.261
  399SOL     OW 1195   2.898   2.706   4.795
  399SOL    HW1 1196   2.801   2.698   4.816
  399SOL    HW2 1197   2.939   2.776   4.854
  400SOL     OW 1198   3.143   4.267   0.610
  400SOL    HW1 1199   3.066   4.330   0.600
  400SOL    HW2 1200   3.109   4.177   0.639
  401SOL     OW 1201   1.604   5.573   1.893
  401SOL    HW1 1202   1.700   5.597   1.889
  401SOL    HW2 1203   1.589   5.507   1.966
  402SOL     OW 1204   4.052   6.287   4.999
  402SOL    HW1 1205   3.953   6.300   5.008
  402SOL    HW2 1206   4.075   6.270   4.903
  403SOL     OW 1207   1.843   6.042   1.983
  403SOL    HW1 1208   1.851   5.965   1.920
  403SOL    HW2 1209   1.921   6.103   1.972
  404SOL     OW 1210   2.733   4.426   1.805
  404SOL    HW1 1211   2.752   4.372   1.887
  404SOL    HW2 1212   2.734   4.366   1.725
  405SOL     OW 1213   0.271   3.910   0.283
  405SOL    HW1 1214   0.281   3.815   0.315
  405SOL    HW2 1215   0.177   3.925   0.253
  406SOL     OW 1216   2.683   5.366   2.884
  406SOL    HW1 1217   2.738   5.445   2.857
  406SOL    HW2 1218   2.701   5.290   2.822
  407SOL     OW 1219   5.109   2.940   0.986
  407SOL    HW1 1220   5.097   2.921   1.084
  407SOL    HW2 1221   5.058   2.873   0.933
  408SOL     OW 1222   4.390   1.072   1.598
  408SOL    HW1 1223   4.365   1.136   1.671
  408SOL    HW2 1224   4.485   1.089   1.570
  409SOL     OW 1225   4.931   2.149   2.411
  409SOL    HW1 1226   4.863   2.202   2.361
  409SOL    HW2 1227   5.023   2.174   2.379
  410SOL     OW 1228   2.424   2.771   0.983
  410SOL    HW1 1229   2.445   2.833   1.059
  410SOL    HW2 1230   2.391   2.824   0.904
  411SOL     OW 1231   2.327   6.021   0.487
  411SOL    HW1 1232   2.361   6.094   0.428
  411SOL    HW2 1233   2.383   6.016   0.570
  412SOL     OW 1234   0.364   6.246   2.013
  412SOL    HW1 1235   0.420   6.223   1.934
  412SOL    HW2 1236   0.280   6.291   1.983
  413SOL     OW 1237   3.450   3.067   0.741
  413SOL    HW1 1238   3.480   3.121   0.662
  413SOL    HW2 1239   3.375   3.114   0.788
  414SOL     OW 1240   0.989   5.281   3.730
  414SOL    HW1 1241   0.964   5.197   3.777
  414SOL    HW2 1242   1.084   5.275   3.700
  415SOL     OW 1243   5.486   1.558   1.666
  415SOL    HW1 1244   5.539   1.506   1.599
  415SOL    HW2 1245   5.443   1.636   1.622
  416SOL     OW 1246   4.951   5.144   3.700
  416SOL    HW1 1247   4.906   5.199   3.630
  416SOL    HW2 1248   5.045   5.177   3.713
  417SOL     OW 1249   3.165   4.176   4.462
  417SOL    HW1 1250   3.128   4.092   4.423
  417SOL    HW2 1251   3.112   4.254   4.430
  418SOL     OW 1252   4.571   3.082   1.981
  418SOL    HW1 1253   4.584   3.026   2.062
  418SOL    HW2 1254   4.648   3.145   1.970
  419SOL     OW 1255   4.546   2.917   1.681
  419SOL    HW1 1256   4.636   2.960   1.695
  419SOL    HW2 1257   4.491   2.930   1.763
  420SOL     OW 1258   2.482   5.205   1.938
  420SOL    HW1 1259   2.402   5.188   1.997
  420SOL    HW2 1260   2.563   5.218   1.995
  421SOL     OW 1261   1.423   4.232   0.670
  421SOL    HW1 1262   1.432   4.299   0.597
  421SOL    HW2 1263   1.330   4.234   0.707
  422SOL     OW 1264   2.697   4.705   4.880
  422SOL    HW1 1265   2.600   4.727   4.876
  422SOL    HW2 1266   2.721   4.645   4.803
  423SOL     OW 1267   5.494   5.199   3.581
  423SOL    HW1 1268   5.470   5.149   3.498
  423SOL    HW2 1269   5.554   5.276   3.558
  424SOL     OW 1270   3.987   1.895   2.748
  424SOL    HW1 1271   3.923   1.967   2.720
  424SOL    HW2 1272   4.056   1.933   2.809
  425SOL     OW 1273   5.459   0.635   4.158
  425SOL    HW1 1274   5.526   0.560   4.158
  425SOL    HW2 1275   5.479   0.698   4.233
  426SOL     OW 1276   5.279   1.361   2.173
  426SOL    HW1 1277   5.353   1.298   2.154
  426SOL    HW2 1278   5.213   1.318   2.235
  427SOL     OW 1279   0.004   4.648   0.228
  427SOL    HW1 1280   0.079   4.653   0.294
  427SOL    HW2 1281   0.020   4.572   0.165
  428SOL     OW 1282   2.074   2.517   3.547
  428SOL    HW1 1283   2.071   2.614   3.522
  428SOL    HW2 1284   2.150   2.501   3.610
  429SOL     OW 1285   3.516   2.742   4.205
  429SOL    HW1 1286   3.527   2.661   4.147
  429SOL    HW2 1287   3.599   2.798   4.200
  430SOL     OW 1288   5.245   1.557   0.707
  430SOL    HW1 1289   5.200   1.645   0.720
  430SOL    HW2 1290   5.232   1.501   0.789
  431SOL     OW 1291   2.738   1.558   2.466
  431SOL    HW1 1292   2.762   1.588   2.374
  431SOL    HW2 1293   2.733   1.459   2.469
  432SOL     OW 1294   2.386   3.935   1.724
  432SOL    HW1 1295   2.415   4.024   1.759
  432SOL    HW2 1296   2.287   3.927   1.733
  433SOL     OW 1297   6.033   2.716   2.039
  433SOL    HW1 1298   6.059   2.780   1.967
  433SOL    HW2 1299   6.086   2.736   2.122
  434SOL     OW 1300   1.565   0.197   4.007
  434SOL    HW1 1301   1.605   0.271   3.952
  434SOL    HW2 1302   1.549   0.117   3.949
  435SOL     OW 1303   5.069   0.268   2.890
  435SOL    HW1 1304   4.994   0.321   2.852
  435SOL    HW2 1305   5.115   0.322   2.961
  436SOL     OW 1306   0.494   0.906   2.841
  436SOL    HW1 1307   0.499   0.998   2.880
  436SOL    HW2 1308   0.587   0.873   2.821
  437SOL     OW 1309   1.411   4.128   4.092
  437SOL    HW1 1310   1.492   4.142   4.149
  437SOL    HW2 1311   1.356   4.053   4.131
  438SOL     OW 1312   0.794   4.755   2.036
  438SOL    HW1 1313   0.741   4.781   1.955
  438SOL    HW2 1314   0.882   4.716   2.006
  439SOL     OW 1315   1.374   4.535   3.808
  439SOL    HW1 1316   1.282   4.498   3.819
  439SOL    HW2 1317   1.423   4.483   3.739
  440SOL     OW 1318   3.901   2.822   3.497
  440SOL    HW1 1319   3.833   2.768   3.447
  440SOL    HW2 1320   3.856   2.899   3.542
  441SOL     OW 1321   4.599   3.467   2.506
  441SOL    HW1 1322   4.623   3.563   2.514
  441SOL    HW2 1323   4.543   3.439   2.584
  442SOL     OW 1324   2.804   1.378   0.691
  442SOL    HW1 1325   2.715   1.337   0.671
  442SOL    HW2 1326   2.875   1.330   0.639
  443SOL     OW 1327   2.843   6.182   4.117
  443SOL    HW1 1328   2.856   6.280   4.103
  443SOL    HW2 1329   2.822   6.164   4.213
  444SOL     OW 1330   1.455   3.419   2.346
  444SOL    HW1 1331   1.367   3.449   2.383
  444SOL    HW2 1332   1.529   3.461   2.399
  445SOL     OW 1333   1.128   5.223   2.939
  445SOL    HW1 1334   1.028   5.222   2.943
  445SOL    HW2 1335   1.161   5.315   2.961
  446SOL     OW 1336   0.964   1.200   1.421
  446SOL    HW1 1337   0.917   1.237   1.501
  446SOL    HW2 1338   0.901   1.142   1.369
  447SOL     OW 1339   3.778   3.639   1.698
  447SOL    HW1 1340   3.699   3.688   1.735
  447SOL    HW2 1341   3.848   3.705   1.669
  448SOL     OW 1342   5.292   1.174   1.934
  448SOL    HW1 1343   5.307   1.266   1.899
  448SOL    HW2 1344   5.197   1.163   1.962
  449SOL     OW 1345   4.125   2.570   0.186
  449SOL    HW1 1346   4.098   2.490   0.133
  449SOL    HW2 1347   4.054   2.640   0.180
  450SOL     OW 1348   3.020   5.972   1.664
  450SOL    HW1 1349   3.072   5.891   1.637
  450SOL    HW2 1350   2.932   5.944   1.701
  451SOL     OW 1351   3.338   0.390   4.506
  451SOL    HW1 1352   3.263   0.430   4.453
  451SOL    HW2 1353   3.302   0.331   4.577
  452SOL     OW 1354   2.252   3.660   0.946
  452SOL    HW1 1355   2.178   3.713   0.905
  452SOL    HW2 1356   2.219   3.614   1.028
  453SOL     OW 1357   2.694   0.911   3.648
  453SOL    HW1 1358   2.756   0.982   3.617
  453SOL    HW2 1359   2.680   0.844   3.575
  454SOL     OW 1360   1.441   0.556   0.175
  454SOL    HW1 1361   1.539   0.574   0.174
  454SOL    HW2 1362   1.395   0.617   0.239
  455SOL     OW 1363   0.736   6.216   0.861
  455SOL    HW1 1364   0.667   6.260   0.804
  455SOL    HW2 1365   0.791   6.155   0.805
  456SOL     OW 1366   3.768   2.922   2.625
  456SOL    HW1 1367   3.814   2.996   2.575
  456SOL    HW2 1368   3.673   2.916   2.594
  457SOL     OW 1369   3.947   3.370   1.846
  457SOL    HW1 1370   3.979   3.419   1.765
  457SOL    HW2 1371   3.847   3.373   1.849
  458SOL     OW 1372   5.181   6.069   3.713
  458SOL    HW1 1373   5.130   6.047   3.630
  458SOL    HW2 1374   5.121   6.062   3.792
  459SOL     OW 1375   0.071   0.305   4.821
  459SOL    HW1 1376   0.016   0.227   4.791
  459SOL    HW2 1377   0.033   0.341   4.906
  460SOL     OW 1378   4.111   0.272   0.114
  460SOL    HW1 1379   4.209   0.293   0.114
  460SOL    HW2 1380   4.080   0.255   0.207
  461SOL     OW 1381   2.328   4.250   3.676
  461SOL    HW1 1382   2.336   4.151   3.678
  461SOL    HW2 1383   2.414   4.291   3.646
  462SOL     OW 1384   3.700   3.038   3.898
  462SOL    HW1 1385   3.687   3.098   3.976
  462SOL    HW2 1386   3.734   2.949   3.929
  463SOL     OW 1387   5.714   5.306   4.027
  463SOL    HW1 1388   5.762   5.342   3.948
  463SOL    HW2 1389   5.672   5.382   4.078
  464SOL     OW 1390   4.716   1.954   4.205
  464SOL    HW1 1391   4.646   1.888   4.178
  464SOL    HW2 1392   4.747   2.004   4.124
  465SOL     OW 1393   1.378   2.501   1.312
  465SOL    HW1 1394   1.363   2.404   1.297
  465SOL    HW2 1395   1.304   2.554   1.271
  466SOL     OW 1396   4.983   0.450   2.546
  466SOL    HW1 1397   5.035   0.394   2.482
  466SOL    HW2 1398   4.952   0.533   2.501
  467SOL     OW 1399   5.057   4.106   3.396
  467SOL    HW1 1400   4.976   4.164   3.406
  467SOL    HW2 1401   5.037   4.015   3.434
  468SOL     OW 1402   6.205   2.827   2.246
  468SOL    HW1 1403   6.277   2.764   2.278
  468SOL    HW2 1404   6.173   2.882   2.324
  469SOL     OW 1405   5.994   5.681   0.549
  469SOL    HW1 1406   6.061   5.639   0.610
  469SOL    HW2 1407   6.016   5.778   0.539
  470SOL     OW 1408   1.070   6.150   2.259
  470SOL    HW1 1409   0.987   6.137   2.205
  470SOL    HW2 1410   1.067   6.239   2.304
  471SOL     OW 1411   1.396   0.994   4.894
  471SOL    HW1 1412   1.466   1.037   4.951
  471SOL    HW2 1413   1.417   0.897   4.882
  472SOL     OW 1414   4.387   0.509   1.338
  472SOL    HW1 1415   4.309   0.466   1.385
  472SOL    HW2 1416   4.419   0.448   1.265
  473SOL     OW 1417   4.671   2.697   0.108
  473SOL    HW1 1418   4.684   2.759   0.030
  473SOL    HW2 1419   4.575   2.698   0.136
  474SOL     OW 1420   5.492   4.611   3.006
  474SOL    HW1 1421   5.452   4.546   3.071
  474SOL    HW2 1422   5.429   4.686   2.990
  475SOL     OW 1423   4.106   4.279   0.321
  475SOL    HW1 1424   4.055   4.258   0.238
  475SOL    HW2 1425   4.083   4.370   0.354
  476SOL     OW 1426   2.479   4.292   2.198
  476SOL    HW1 1427   2.448   4.387   2.193
  476SOL    HW2 1428   2.405   4.232   2.169
  477SOL     OW 1429   5.692   4.774  -0.015
  477SOL    HW1 1430   5.618   4.772   0.052
  477SOL    HW2 1431   5.780   4.761   0.032
  478SOL     OW 1432   3.638   0.482   1.466
  478SOL    HW1 1433   3.604   0.390   1.483
  478SOL    HW2 1434   3.561   0.546   1.463
  479SOL     OW 1435   2.692   0.057   4.692
  479SOL    HW1 1436   2.627   0.005   4.746
  479SOL    HW2 1437   2.647   0.137   4.652
  480SOL     OW 1438   1.587   1.997   3.374
  480SOL    HW1 1439   1.663   2.061   3.362
  480SOL    HW2 1440   1.500   2.046   3.368
  481SOL     OW 1441   0.346   6.075   4.820
  481SOL    HW1 1442   0.344   6.003   4.889
  481SOL    HW2 1443   0.411   6.146   4.848
  482SOL     OW 1444   4.444   0.240   2.490
  482SOL    HW1 1445   4.367   0.184   2.461
  482SOL    HW2 1446   4.426   0.336   2.467
  483SOL     OW 1447   2.664   4.671   4.097
  483SOL    HW1 1448   2.635   4.586   4.141
  483SOL    HW2 1449   2.648   4.748   4.159
  484SOL     OW 1450   3.302   2.103   3.404
  484SOL    HW1 1451   3.333   2.015   3.440
  484SOL    HW2 1452   3.330   2.176   3.467
  485SOL     OW 1453   1.976   5.331   0.132
  485SOL    HW1 1454   1.986   5.258   0.065
  485SOL    HW2 1455   2.059   5.336   0.188
  486SOL     OW 1456   1.168   0.053   3.587
  486SOL    HW1 1457   1.085   0.015   3.629
  486SOL    HW2 1458   1.235  -0.020   3.574
  487SOL     OW 1459   0.178   5.625   2.745
  487SOL    HW1 1460   0.230   5.668   2.672
  487SOL    HW2 1461   0.203   5.528   2.752
  488SOL     OW 1462   0.334   0.656   1.064
  488SOL    HW1 1463   0.356   0.750   1.036
  488SOL    HW2 1464   0.243   0.632   1.032
  489SOL     OW 1465   2.765   3.283   3.536
  489SOL    HW1 1466   2.797   3.276   3.630
  489SOL    HW2 1467   2.790   3.372   3.498
  490SOL     OW 1468   3.007   0.775   2.793
  490SOL    HW1 1469   2.951   0.697   2.822
  490SOL    HW2 1470   3.093   0.775   2.845
  491SOL     OW 1471   5.590   2.170   0.284
  491SOL    HW1 1472   5.558   2.092   0.231
  491SOL    HW2 1473   5.613   2.246   0.223
  492SOL     OW 1474   3.831   2.495   3.818
  492SOL    HW1 1475   3.752   2.434   3.820
  492SOL    HW2 1476   3.896   2.464   3.748
  493SOL     OW 1477   3.072   4.358   3.168
  493SOL    HW1 1478   3.145   4.415   3.207
  493SOL    HW2 1479   3.050   4.284   3.232
  494SOL     OW 1480   0.674   0.692   2.252
  494SOL    HW1 1481   0.684   0.634   2.171
  494SOL    HW2 1482   0.576   0.702   2.273
  495SOL     OW 1483   5.257   4.467   3.524
  495SOL    HW1 1484   5.208   4.388   3.561
  495SOL    HW2 1485   5.217   4.494   3.436
  496SOL     OW 1486   0.495   0.346   0.527
  496SOL    HW1 1487   0.516   0.303   0.439
  496SOL    HW2 1488   0.434   0.286   0.579
  497SOL     OW 1489   2.073   2.538   0.362
  497SOL    HW1 1490   2.032   2.535   0.454
  497SOL    HW2 1491   2.118   2.627   0.349
  498SOL     OW 1492   0.079   4.022   3.937
  498SOL    HW1 1493   0.158   3.969   3.907
  498SOL    HW2 1494   0.075   4.107   3.885
  499SOL     OW 1495   4.796   4.551   2.740
  499SOL    HW1 1496   4.801   4.464   2.789
  499SOL    HW2 1497   4.796   4.533   2.642
  500SOL     OW 1498   5.984   1.421   2.337
  500SOL    HW1 1499   5.952   1.479   2.411
  500SOL    HW2 1500   6.054   1.358   2.372
  501SOL     OW 1501   1.747   2.537   4.749
  501SOL    HW1 1502   1.792   2.451   4.725
  501SOL    HW2 1503   1.802   2.613   4.714
  502SOL     OW 1504   2.293   2.224   4.421
  502SOL    HW1 1505   2.241   2.204   4.504
  502SOL    HW2 1506   2.238   2.201   4.341
  503SOL     OW 1507   5.247   5.605   0.506
  503SOL    HW1 1508   5.324   5.636   0.451
  503SOL    HW2 1509   5.247   5.653   0.594
  504SOL     OW 1510   3.257   0.824   2.976
  504SOL    HW1 1511   3.258   0.896   3.045
  504SOL    HW2 1512   3.329   0.757   2.996
  505SOL     OW 1513   0.413   5.881   4.316
  505SOL    HW1 1514   0.365   5.953   4.266
  505SOL    HW2 1515   0.419   5.905   4.413
  506SOL     OW 1516   1.841   0.416   4.756
  506SOL    HW1 1517   1.762   0.374   4.801
  506SOL    HW2 1518   1.885   0.480   4.819
  507SOL     OW 1519   4.500   5.299   1.636
  507SOL    HW1 1520   4.600   5.292   1.629
  507SOL    HW2 1521   4.474   5.395   1.633
  508SOL     OW 1522   0.140   5.613   3.872
  508SOL    HW1 1523   0.211   5.568   3.819
  508SOL    HW2 1524   0.175   5.635   3.963
  509SOL     OW 1525   2.455   4.202   1.791
  509SOL    HW1 1526   2.487   4.281   1.843
  509SOL    HW2 1527   2.463   4.221   1.693
  510SOL     OW 1528   5.068   4.566   2.584
  510SOL    HW1 1529   5.039   4.634   2.651
  510SOL    HW2 1530   5.074   4.476   2.627
  511SOL     OW 1531   5.757   1.461   4.302
  511SOL    HW1 1532   5.819   1.527   4.259
  511SOL    HW2 1533   5.669   1.462   4.253
  512SOL     OW 1534   4.874   5.488   3.957
  512SOL    HW1 1535   4.966   5.506   3.992
  512SOL    HW2 1536   4.836   5.571   3.917
  513SOL     OW 1537   1.178   2.714   2.434
  513SOL    HW1 1538   1.246   2.784   2.410
  513SOL    HW2 1539   1.210   2.625   2.401
  514SOL     OW 1540   0.486   4.911   3.957
  514SOL    HW1 1541   0.393   4.877   3.973
  514SOL    HW2 1542   0.513   4.891   3.863
  515SOL     OW 1543   5.790   5.135   4.271
  515SOL    HW1 1544   5.705   5.138   4.218
  515SOL    HW2 1545   5.863   5.179   4.219
  516SOL     OW 1546   5.079   2.413   2.120
  516SOL    HW1 1547   5.063   2.473   2.199
  516SOL    HW2 1548   5.175   2.383   2.121
  517SOL     OW 1549   5.631   0.073   1.227
  517SOL    HW1 1550   5.544   0.025   1.214
  517SOL    HW2 1551   5.659   0.067   1.322
  518SOL     OW 1552   2.018   3.009   0.631
  518SOL    HW1 1553   1.930   2.978   0.666
  518SOL    HW2 1554   2.009   3.101   0.595
  519SOL     OW 1555   5.302   0.650   0.266
  519SOL    HW1 1556   5.211   0.677   0.297
  519SOL    HW2 1557   5.340   0.721   0.207
  520SOL     OW 1558   3.338   0.722   0.978
  520SOL    HW1 1559   3.311   0.816   0.999
  520SOL    HW2 1560   3.430   0.722   0.939
  521SOL     OW 1561   4.116   5.783   3.785
  521SOL    HW1 1562   4.017   5.798   3.789
  521SOL    HW2 1563   4.162   5.851   3.843
  522SOL     OW 1564   4.477   1.137   3.325
  522SOL    HW1 1565   4.479   1.223   3.274
  522SOL    HW2 1566   4.569   1.100   3.332
  523SOL     OW 1567   4.220   0.141   0.858
  523SOL    HW1 1568   4.319   0.129   0.849
  523SOL    HW2 1569   4.186   0.081   0.930
  524SOL     OW 1570   0.044   0.251   1.140
  524SOL    HW1 1571   0.040   0.151   1.135
  524SOL    HW2 1572   0.114   0.278   1.205
  525SOL     OW 1573   0.622   1.200   2.891
  525SOL    HW1 1574   0.702   1.259   2.897
  525SOL    HW2 1575   0.539   1.254   2.906
  526SOL     OW 1576   4.695   6.110   1.141
  526SOL    HW1 1577   4.629   6.059   1.195
  526SOL    HW2 1578   4.788   6.083   1.166
  527SOL     OW 1579   1.325   1.538   3.075
  527SOL    HW1 1580   1.331   1.470   3.149
  527SOL    HW2 1581   1.247   1.599   3.092
  528SOL     OW 1582   4.844   4.872   3.614
  528SOL    HW1 1583   4.792   4.828   3.687
  528SOL    HW2 1584   4.893   4.951   3.652
  529SOL     OW 1585   4.143   0.887   4.439
  529SOL    HW1 1586   4.169   0.895   4.343
  529SOL    HW2 1587   4.052   0.927   4.453
  530SOL     OW 1588   2.560   4.513   3.875
  530SOL    HW1 1589   2.473   4.542   3.836
  530SOL    HW2 1590   2.601   4.589   3.926
  531SOL     OW 1591   3.604   5.251   3.758
  531SOL    HW1 1592   3.594   5.302   3.673
  531SOL    HW2 1593   3.603   5.153   3.738
  532SOL     OW 1594   3.818   0.211   1.614
  532SOL    HW1 1595   3.914   0.185   1.599
  532SOL    HW2 1596   3.815   0.290   1.676
  533SOL     OW 1597   2.247   5.124   4.734
  533SOL    HW1 1598   2.171   5.127   4.670
  533SOL    HW2 1599   2.213   5.142   4.827
  534SOL     OW 1600   3.822   2.665   2.719
  534SOL    HW1 1601   3.735   2.648   2.765
  534SOL    HW2 1602   3.824   2.758   2.683
  535SOL     OW 1603   1.737   3.497   0.754
  535SOL    HW1 1604   1.815   3.550   0.722
  535SOL    HW2 1605   1.696   3.449   0.677
  536SOL     OW 1606   2.325   5.183   2.410
  536SOL    HW1 1607   2.303   5.246   2.484
  536SOL    HW2 1608   2.403   5.218   2.358
  537SOL     OW 1609   6.052   4.871   4.878
  537SOL    HW1 1610   5.954   4.889   4.870
  537SOL    HW2 1611   6.098   4.900   4.794
  538SOL     OW 1612   5.338   0.689   3.642
  538SOL    HW1 1613   5.375   0.609   3.689
  538SOL    HW2 1614   5.247   0.709   3.678
  539SOL     OW 1615   2.683   0.730   2.383
  539SOL    HW1 1616   2.634   0.803   2.430
  539SOL    HW2 1617   2.778   0.727   2.415
  540SOL     OW 1618   5.855   5.573   3.585
  540SOL    HW1 1619   5.842   5.671   3.569
  540SOL    HW2 1620   5.923   5.537   3.520
  541SOL     OW 1621   0.889   1.867   1.851
  541SOL    HW1 1622   0.899   1.773   1.884
  541SOL    HW2 1623   0.800   1.903   1.880
  542SOL     OW 1624   2.898   0.683   0.794
  542SOL    HW1 1625   2.996   0.662   0.792
  542SOL    HW2 1626   2.856   0.655   0.708
  543SOL     OW 1627   1.563   3.845   2.028
  543SOL    HW1 1628   1.589   3.902   1.951
  543SOL    HW2 1629   1.595   3.751   2.012
  544SOL     OW 1630   5.009   2.689   2.989
  544SOL    HW1 1631   4.965   2.778   2.999
  544SOL    HW2 1632   5.108   2.699   3.003
  545SOL     OW 1633   1.010   5.508   3.043
  545SOL    HW1 1634   0.983   5.571   2.971
  545SOL    HW2 1635   0.938   5.504   3.113
  546SOL     OW 1636   3.028   3.464   0.409
  546SOL    HW1 1637   2.935   3.493   0.385
  546SOL    HW2 1638   3.027   3.418   0.498
  547SOL     OW 1639   1.487   4.875   1.828
  547SOL    HW1 1640   1.569   4.819   1.818
  547SOL    HW2 1641   1.423   4.854   1.754
  548SOL     OW 1642   2.942   0.244   2.638
  548SOL    HW1 1643   3.001   0.312   2.594
  548SOL    HW2 1644   2.861   0.289   2.675
  549SOL     OW 1645   5.475   5.694   0.382
  549SOL    HW1 1646   5.471   5.771   0.318
  549SOL    HW2 1647   5.567   5.655   0.381
  550SOL     OW 1648   1.751   3.277   1.477
  550SOL    HW1 1649   1.765   3.352   1.412
  550SOL    HW2 1650   1.812   3.201   1.455
  551SOL     OW 1651   5.289   6.234   2.547
  551SOL    HW1 1652   5.317   6.181   2.627
  551SOL    HW2 1653   5.270   6.172   2.471
  552SOL     OW 1654   2.411   3.818   0.327
  552SOL    HW1 1655   2.413   3.759   0.246
  552SOL    HW2 1656   2.321   3.862   0.333
  553SOL     OW 1657   5.165   1.469   0.445
  553SOL    HW1 1658   5.177   1.387   0.501
  553SOL    HW2 1659   5.205   1.547   0.491
  554SOL     OW 1660   3.984   2.076   4.365
  554SOL    HW1 1661   3.913   2.098   4.432
  554SOL    HW2 1662   4.062   2.033   4.411
  555SOL     OW 1663   5.414   1.418   1.337
  555SOL    HW1 1664   5.499   1.401   1.386
  555SOL    HW2 1665   5.338   1.417   1.402
  556SOL     OW 1666   3.603   5.092   4.811
  556SOL    HW1 1667   3.680   5.111   4.750
  556SOL    HW2 1668   3.551   5.015   4.776
  557SOL     OW 1669   3.905   3.359   1.088
  557SOL    HW1 1670   3.966   3.409   1.149
  557SOL    HW2 1671   3.826   3.325   1.141
  558SOL     OW 1672   3.268   1.763   0.279
  558SOL    HW1 1673   3.331   1.814   0.337
  558SOL    HW2 1674   3.210   1.704   0.336
  559SOL     OW 1675   0.553   5.202   0.994
  559SOL    HW1 1676   0.554   5.104   1.014
  559SOL    HW2 1677   0.632   5.246   1.037
  560SOL     OW 1678   0.795   5.766   0.194
  560SOL    HW1 1679   0.882   5.791   0.237
  560SOL    HW2 1680   0.780   5.668   0.205
  561SOL     OW 1681   1.364   3.849   2.370
  561SOL    HW1 1682   1.316   3.848   2.282
  561SOL    HW2 1683   1.458   3.882   2.355
  562SOL     OW 1684   3.210   4.495   2.704
  562SOL    HW1 1685   3.124   4.449   2.724
  562SOL    HW2 1686   3.286   4.438   2.734
  563SOL     OW 1687   3.444   4.823   1.501
  563SOL    HW1 1688   3.423   4.872   1.586
  563SOL    HW2 1689   3.505   4.880   1.445
  564SOL     OW 1690   5.734   0.232   1.026
  564SOL    HW1 1691   5.710   0.166   1.097
  564SOL    HW2 1692   5.651   0.275   0.991
  565SOL     OW 1693   1.651   4.010   1.019
  565SOL    HW1 1694   1.575   3.961   0.976
  565SOL    HW2 1695   1.641   4.108   1.003
  566SOL     OW 1696   2.544   2.572   2.069
  566SOL    HW1 1697   2.549   2.521   1.983
  566SOL    HW2 1698   2.476   2.645   2.061
  567SOL     OW 1699   5.872   3.902   2.214
  567SOL    HW1 1700   5.899   3.943   2.126
  567SOL    HW2 1701   5.833   3.811   2.197
  568SOL     OW 1702   2.765   3.536   0.386
  568SOL    HW1 1703   2.683   3.510   0.335
  568SOL    HW2 1704   2.737   3.579   0.473
  569SOL     OW 1705   3.686   1.922   0.757
  569SOL    HW1 1706   3.704   1.912   0.659
  569SOL    HW2 1707   3.761   1.881   0.809
  570SOL     OW 1708   0.297   5.964   3.396
  570SOL    HW1 1709   0.292   5.864   3.400
  570SOL    HW2 1710   0.213   6.003   3.434
  571SOL     OW 1711   5.968   5.515   4.857
  571SOL    HW1 1712   5.881   5.469   4.843
  571SOL    HW2 1713   6.043   5.455   4.829
  572SOL     OW 1714   1.839   6.112   1.674
  572SOL    HW1 1715   1.754   6.067   1.648
  572SOL    HW2 1716   1.818   6.197   1.723
  573SOL     OW 1717   0.498   4.746   1.364
  573SOL    HW1 1718   0.402   4.738   1.393
  573SOL    HW2 1719   0.548   4.664   1.394
  574SOL     OW 1720   6.321   5.254   3.175
  574SOL    HW1 1721   6.225   5.226   3.176
  574SOL    HW2 1722   6.356   5.252   3.082
  575SOL     OW 1723   3.022   4.343   2.495
  575SOL    HW1 1724   3.024   4.262   2.436
  575SOL    HW2 1725   3.112   4.387   2.494
  576SOL     OW 1726   0.929   1.497   1.132
  576SOL    HW1 1727   0.835   1.465   1.120
  576SOL    HW2 1728   0.933   1.560   1.209
  577SOL     OW 1729   1.048   4.051   2.182
  577SOL    HW1 1730   1.079   4.031   2.275
  577SOL    HW2 1731   0.967   4.110   2.186
  578SOL     OW 1732   3.515   0.643   4.398
  578SOL    HW1 1733   3.420   0.671   4.391
  578SOL    HW2 1734   3.520   0.545   4.418
  579SOL     OW 1735   5.188   5.304   0.519
  579SOL    HW1 1736   5.147   5.342   0.602
  579SOL    HW2 1737   5.276   5.349   0.503
  580SOL     OW 1738   2.949   4.425   4.871
  580SOL    HW1 1739   2.886   4.427   4.949
  580SOL    HW2 1740   3.040   4.401   4.902
  581SOL     OW 1741   0.603   4.197   0.345
  581SOL    HW1 1742   0.603   4.255   0.263
  581SOL    HW2 1743   0.559   4.110   0.323
  582SOL     OW 1744   2.719   4.747   0.101
  582SOL    HW1 1745   2.814   4.779   0.103
  582SOL    HW2 1746   2.717   4.648   0.114
  583SOL     OW 1747   4.148   0.894   1.275
  583SOL    HW1 1748   4.195   0.806   1.277
  583SOL    HW2 1749   4.212   0.966   1.248
  584SOL     OW 1750   3.542   4.236   0.235
  584SOL    HW1 1751   3.493   4.194   0.311
  584SOL    HW2 1752   3.503   4.326   0.216
  585SOL     OW 1753   0.513   2.646   4.888
  585SOL    HW1 1754   0.457   2.685   4.961
  585SOL    HW2 1755   0.470   2.562   4.855
  586SOL     OW 1756   2.402   3.165   4.594
  586SOL    HW1 1757   2.354   3.106   4.529
  586SOL    HW2 1758   2.473   3.113   4.640
  587SOL     OW 1759   0.238   4.174   2.053
  587SOL    HW1 1760   0.179   4.242   2.009
  587SOL    HW2 1761   0.253   4.199   2.149
  588SOL     OW 1762   1.367   2.613   4.757
  588SOL    HW1 1763   1.446   2.623   4.696
  588SOL    HW2 1764   1.313   2.534   4.728
  589SOL     OW 1765   0.896   6.075   1.881
  589SOL    HW1 1766   0.986   6.075   1.838
  589SOL    HW2 1767   0.884   5.992   1.934
  590SOL     OW 1768   1.832   5.539   3.749
  590SOL    HW1 1769   1.763   5.494   3.805
  590SOL    HW2 1770   1.863   5.477   3.677
  591SOL     OW 1771   5.488   1.587   3.072
  591SOL    HW1 1772   5.587   1.595   3.084
  591SOL    HW2 1773   5.447   1.678   3.078
  592SOL     OW 1774   2.934   0.341   2.012
  592SOL    HW1 1775   2.909   0.377   2.102
  592SOL    HW2 1776   2.857   0.291   1.973
  593SOL     OW 1777   3.234   2.494   3.552
  593SOL    HW1 1778   3.147   2.446   3.560
  593SOL    HW2 1779   3.295   2.463   3.626
  594SOL     OW 1780   4.983   3.522   0.755
  594SOL    HW1 1781   4.896   3.566   0.777
  594SOL    HW2 1782   4.967   3.442   0.696
  595SOL     OW 1783   0.166   3.791   3.527
  595SOL    HW1 1784   0.189   3.711   3.472
  595SOL    HW2 1785   0.130   3.863   3.467
  596SOL     OW 1786   5.352   3.805   3.009
  596SOL    HW1 1787   5.436   3.766   2.972
  596SOL    HW2 1788   5.273   3.764   2.963
  597SOL     OW 1789   0.621   1.466   3.574
  597SOL    HW1 1790   0.646   1.560   3.596
  597SOL    HW2 1791   0.668   1.403   3.637
  598SOL     OW 1792   0.584   2.986   4.195
  598SOL    HW1 1793   0.645   2.907   4.190
  598SOL    HW2 1794   0.494   2.961   4.162
  599SOL     OW 1795   5.566   4.161   3.073
  599SOL    HW1 1796   5.525   4.096   3.137
  599SOL    HW2 1797   5.497   4.190   3.006
  600SOL     OW 1798   0.421   1.641   2.253
  600SOL    HW1 1799   0.425   1.740   2.234
  600SOL    HW2 1800   0.330   1.607   2.231
  601SOL     OW 1801   2.131   1.668   1.971
  601SOL    HW1 1802   2.211   1.648   1.915
  601SOL    HW2 1803   2.158   1.677   2.066
  602SOL     OW 1804   5.745   4.259   4.815
  602SOL    HW1 1805   5.689   4.320   4.759
  602SOL    HW2 1806   5.839   4.259   4.781
  603SOL     OW 1807   2.646   3.914   4.944
  603SOL    HW1 1808   2.583   3.849   4.900
  603SOL    HW2 1809   2.728   3.924   4.888
  604SOL     OW 1810   2.480   3.837   3.055
  604SOL    HW1 1811   2.395   3.882   3.026
  604SOL    HW2 1812   2.524   3.796   2.976
  605SOL     OW 1813   4.022   0.070   4.411
  605SOL    HW1 1814   4.101   0.013   4.388
  605SOL    HW2 1815   3.938   0.023   4.382
  606SOL     OW 1816   3.343   1.662   2.120
  606SOL    HW1 1817   3.359   1.732   2.190
  606SOL    HW2 1818   3.247   1.662   2.094
  607SOL     OW 1819   3.395   3.869   2.371
  607SOL    HW1 1820   3.343   3.789   2.402
  607SOL    HW2 1821   3.417   3.926   2.450
  608SOL     OW 1822   3.696   0.247   1.923
  608SOL    HW1 1823   3.743   0.159   1.923
  608SOL    HW2 1824   3.605   0.237   1.963
  609SOL     OW 1825   4.947   5.867   3.770
  609SOL    HW1 1826   4.941   5.793   3.703
  609SOL    HW2 1827   4.988   5.833   3.854
  610SOL     OW 1828   2.389   1.531   4.160
  610SOL    HW1 1829   2.467   1.561   4.105
  610SOL    HW2 1830   2.349   1.449   4.119
  611SOL     OW 1831   2.810   4.662   1.680
  611SOL    HW1 1832   2.775   4.583   1.730
  611SOL    HW2 1833   2.849   4.728   1.745
  612SOL     OW 1834   3.499   1.787   1.462
  612SOL    HW1 1835   3.553   1.868   1.485
  612SOL    HW2 1836   3.553   1.725   1.405
  613SOL     OW 1837   1.776   5.253   3.748
  613SOL    HW1 1838   1.847   5.233   3.816
  613SOL    HW2 1839   1.732   5.168   3.720
  614SOL     OW 1840   5.038   1.267   3.276
  614SOL    HW1 1841   5.133   1.298   3.276
  614SOL    HW2 1842   4.985   1.319   3.343
  615SOL     OW 1843   6.050   4.287   4.889
  615SOL    HW1 1844   6.052   4.371   4.944
  615SOL    HW2 1845   6.030   4.209   4.949
  616SOL     OW 1846   6.263   3.259   4.972
  616SOL    HW1 1847   6.228   3.306   4.891
  616SOL    HW2 1848   6.318   3.180   4.943
  617SOL     OW 1849   5.381   4.417   4.244
  617SOL    HW1 1850   5.376   4.482   4.168
  617SOL    HW2 1851   5.289   4.391   4.272
  618SOL     OW 1852   1.953   5.121   4.831
  618SOL    HW1 1853   1.891   5.044   4.847
  618SOL    HW2 1854   1.905   5.207   4.851
  619SOL     OW 1855   0.165   0.030   1.301
  619SOL    HW1 1856   0.223  -0.002   1.376
  619SOL    HW2 1857   0.070   0.034   1.332
  620SOL     OW 1858   5.937   4.572   0.738
  620SOL    HW1 1859   5.883   4.628   0.676
  620SOL    HW2 1860   6.034   4.585   0.720
  621SOL     OW 1861   4.144   0.679   4.625
  621SOL    HW1 1862   4.186   0.751   4.570
  621SOL    HW2 1863   4.064   0.642   4.577
  622SOL     OW 1864   5.434   5.528   1.469
  622SOL    HW1 1865   5.436   5.432   1.441
  622SOL    HW2 1866   5.496   5.581   1.412
  623SOL     OW 1867   1.718   4.985   3.715
  623SOL    HW1 1868   1.794   4.944   3.664
  623SOL    HW2 1869   1.684   4.921   3.783
  624SOL     OW 1870   4.055   1.517   2.946
  624SOL    HW1 1871   4.139   1.478   2.909
  624SOL    HW2 1872   3.982   1.509   2.878
  625SOL     OW 1873   0.877   0.428   0.548
  625SOL    HW1 1874   0.952   0.399   0.489
  625SOL    HW2 1875   0.793   0.437   0.495
  626SOL     OW 1876   3.928   4.603   4.608
  626SOL    HW1 1877   3.919   4.584   4.706
  626SOL    HW2 1878   3.853   4.663   4.579
  627SOL     OW 1879   5.518   2.391   0.881
  627SOL    HW1 1880   5.448   2.357   0.818
  627SOL    HW2 1881   5.598   2.422   0.829
  628SOL     OW 1882   6.105   2.453   3.751
  628SOL    HW1 1883   6.188   2.504   3.774
  628SOL    HW2 1884   6.068   2.409   3.833
  629SOL     OW 1885   1.963   0.203   3.475
  629SOL    HW1 1886   1.930   0.112   3.448
  629SOL    HW2 1887   2.059   0.198   3.500
  630SOL     OW 1888   2.299   2.970   4.376
  630SOL    HW1 1889   2.335   2.987   4.284
  630SOL    HW2 1890   2.206   3.006   4.383
  631SOL     OW 1891   5.946   3.615   0.701
  631SOL    HW1 1892   5.984   3.708   0.706
  631SOL    HW2 1893   5.993   3.556   0.766
  632SOL     OW 1894   1.027   2.934   0.225
  632SOL    HW1 1895   1.038   3.004   0.296
  632SOL    HW2 1896   1.005   2.978   0.138
  633SOL     OW 1897   3.301   2.374   0.475
  633SOL    HW1 1898   3.295   2.468   0.511
  633SOL    HW2 1899   3.244   2.314   0.531
  634SOL     OW 1900   3.092   3.934   0.490
  634SOL    HW1 1901   3.144   3.881   0.422
  634SOL    HW2 1902   3.022   3.876   0.531
  635SOL     OW 1903   3.424   2.536   4.959
  635SOL    HW1 1904   3.400   2.508   4.866
  635SOL    HW2 1905   3.506   2.485   4.988
  636SOL     OW 1906   5.311   0.752   0.692
  636SOL    HW1 1907   5.405   0.768   0.723
  636SOL    HW2 1908   5.303   0.658   0.658
  637SOL     OW 1909   5.008   4.076   3.923
  637SOL    HW1 1910   5.086   4.135   3.943
  637SOL    HW2 1911   4.980   4.089   3.827
  638SOL     OW 1912   5.615   3.386   4.561
  638SOL    HW1 1913   5.573   3.299   4.534
  638SOL    HW2 1914   5.627   3.443   4.480
  639SOL     OW 1915   6.073   1.152   4.889
  639SOL    HW1 1916   6.120   1.230   4.847
  639SOL    HW2 1917   5.977   1.175   4.903
  640SOL     OW 1918   0.243   5.340   4.254
  640SOL    HW1 1919   0.320   5.287   4.219
  640SOL    HW2 1920   0.274   5.433   4.275
  641SOL     OW 1921   2.347   4.933   0.743
  641SOL    HW1 1922   2.259   4.889   0.758
  641SOL    HW2 1923   2.347   5.024   0.786
  642SOL     OW 1924   6.128   1.701   1.260
  642SOL    HW1 1925   6.068   1.767   1.304
  642SOL    HW2 1926   6.196   1.668   1.325
  643SOL     OW 1927   1.125   1.219   3.078
  643SOL    HW1 1928   1.163   1.141   3.028
  643SOL    HW2 1929   1.027   1.227   3.057
  644SOL     OW 1930   4.687   0.843   1.632
  644SOL    HW1 1931   4.592   0.811   1.631
  644SOL    HW2 1932   4.747   0.769   1.662
  645SOL     OW 1933   1.676   4.679   1.787
  645SOL    HW1 1934   1.763   4.655   1.743
  645SOL    HW2 1935   1.617   4.599   1.789
  646SOL     OW 1936   2.040   2.832   2.127
  646SOL    HW1 1937   2.042   2.911   2.066
  646SOL    HW2 1938   1.948   2.791   2.124
  647SOL     OW 1939   4.668   4.991   1.567
  647SOL    HW1 1940   4.661   4.977   1.469
  647SOL    HW2 1941   4.677   4.902   1.613
  648SOL     OW 1942   4.506   0.728   1.218
  648SOL    HW1 1943   4.602   0.700   1.225
  648SOL    HW2 1944   4.449   0.664   1.269
  649SOL     OW 1945   3.670   2.095   4.748
  649SOL    HW1 1946   3.735   2.093   4.823
  649SOL    HW2 1947   3.654   2.002   4.715
  650SOL     OW 1948   6.171   1.801   3.800
  650SOL    HW1 1949   6.088   1.773   3.849
  650SOL    HW2 1950   6.251   1.777   3.856
  651SOL     OW 1951   1.175   3.736   3.053
  651SOL    HW1 1952   1.221   3.747   3.141
  651SOL    HW2 1953   1.236   3.762   2.979
  652SOL     OW 1954   0.553   1.553   4.029
  652SOL    HW1 1955   0.461   1.591   4.029
  652SOL    HW2 1956   0.553   1.464   4.075
  653SOL     OW 1957   2.273   3.038   3.675
  653SOL    HW1 1958   2.187   2.987   3.678
  653SOL    HW2 1959   2.348   2.976   3.657
  654SOL     OW 1960   3.688   1.687   1.703
  654SOL    HW1 1961   3.680   1.676   1.802
  654SOL    HW2 1962   3.597   1.689   1.662
  655SOL     OW 1963   4.163   5.471   0.915
  655SOL    HW1 1964   4.133   5.382   0.949
  655SOL    HW2 1965   4.121   5.490   0.826
  656SOL     OW 1966   0.594   3.577   1.196
  656SOL    HW1 1967   0.597   3.596   1.098
  656SOL    HW2 1968   0.680   3.606   1.238
  657SOL     OW 1969   5.922   3.371   2.712
  657SOL    HW1 1970   5.827   3.381   2.682
  657SOL    HW2 1971   5.983   3.375   2.632
  658SOL     OW 1972   2.337   0.893   2.058
  658SOL    HW1 1973   2.261   0.856   2.005
  658SOL    HW2 1974   2.414   0.830   2.055
  659SOL     OW 1975   5.826   5.468   0.090
  659SOL    HW1 1976   5.786   5.560   0.090
  659SOL    HW2 1977   5.755   5.402   0.066
  660SOL     OW 1978   5.510   2.232   0.548
  660SOL    HW1 1979   5.594   2.256   0.595
  660SOL    HW2 1980   5.530   2.207   0.454
  661SOL     OW 1981   5.695   6.025   0.839
  661SOL    HW1 1982   5.742   6.108   0.810
  661SOL    HW2 1983   5.717   5.950   0.776
  662SOL     OW 1984   3.804   3.952   4.141
  662SOL    HW1 1985   3.749   3.871   4.126
  662SOL    HW2 1986   3.867   3.965   4.065
  663SOL     OW 1987   2.014   4.085   1.624
  663SOL    HW1 1988   2.045   4.046   1.711
  663SOL    HW2 1989   1.948   4.023   1.581
  664SOL     OW 1990   1.815   4.180   2.251
  664SOL    HW1 1991   1.848   4.269   2.219
  664SOL    HW2 1992   1.719   4.169   2.228
  665SOL     OW 1993   3.900   1.057   0.440
  665SOL    HW1 1994   3.981   1.058   0.381
  665SOL    HW2 1995   3.900   0.974   0.495
  666SOL     OW 1996   5.792   2.261   1.131
  666SOL    HW1 1997   5.812   2.218   1.042
  666SOL    HW2 1998   5.848   2.342   1.142
  667SOL     OW 1999   5.874   3.226   0.054
  667SOL    HW1 2000   5.942   3.284   0.100
  667SOL    HW2 2001   5.792   3.281   0.033
  668SOL     OW 2002   3.701   3.438   2.658
  668SOL    HW1 2003   3.687   3.512   2.724
  668SOL    HW2 2004   3.788   3.393   2.676
  669SOL     OW 2005   1.678   3.779   1.594
  669SOL    HW1 2006   1.597   3.730   1.561
  669SOL    HW2 2007   1.743   3.713   1.633
  670SOL     OW 2008   5.592   0.373   4.066
  670SOL    HW1 2009   5.504   0.362   4.019
  670SOL    HW2 2010   5.654   0.299   4.040
  671SOL     OW 2011   0.996   3.823   2.837
  671SOL    HW1 2012   1.063   3.898   2.842
  671SOL    HW2 2013   1.023   3.750   2.899
  672SOL     OW 2014   3.273   2.883   2.912
  672SOL    HW1 2015   3.372   2.869   2.910
  672SOL    HW2 2016   3.240   2.908   2.821
  673SOL     OW 2017   4.736   4.197   0.126
  673SOL    HW1 2018   4.782   4.283   0.103
  673SOL    HW2 2019   4.776   4.122   0.074
  674SOL     OW 2020   3.581   1.947   1.206
  674SOL    HW1 2021   3.546   1.972   1.116
  674SOL    HW2 2022   3.505   1.914   1.263
  675SOL     OW 2023   4.140   3.758   2.732
  675SOL    HW1 2024   4.122   3.660   2.724
  675SOL    HW2 2025   4.239   3.774   2.726
  676SOL     OW 2026   1.885   3.533   1.849
  676SOL    HW1 2027   1.946   3.508   1.925
  676SOL    HW2 2028   1.799   3.482   1.857
  677SOL     OW 2029   3.475   6.130   1.312
  677SOL    HW1 2030   3.400   6.068   1.293
  677SOL    HW2 2031   3.449   6.223   1.285
  678SOL     OW 2032   3.899   0.845   1.459
  678SOL    HW1 2033   3.977   0.886   1.411
  678SOL    HW2 2034   3.924   0.754   1.492
  679SOL     OW 2035   3.064   1.153   4.670
  679SOL    HW1 2036   3.152   1.157   4.717
  679SOL    HW2 2037   3.002   1.221   4.708
  680SOL     OW 2038   0.845   3.399   4.663
  680SOL    HW1 2039   0.809   3.306   4.660
  680SOL    HW2 2040   0.779   3.460   4.707
  681SOL     OW 2041   1.109   1.361   0.965
  681SOL    HW1 2042   1.043   1.409   1.023
  681SOL    HW2 2043   1.199   1.362   1.008
  682SOL     OW 2044   2.569   2.935   4.671
  682SOL    HW1 2045   2.511   2.856   4.689
  682SOL    HW2 2046   2.627   2.917   4.591
  683SOL     OW 2047   3.695   3.500   4.472
  683SOL    HW1 2048   3.708   3.447   4.388
  683SOL    HW2 2049   3.784   3.535   4.503
  684SOL     OW 2050   4.657   1.615   2.330
  684SOL    HW1 2051   4.604   1.698   2.314
  684SOL    HW2 2052   4.754   1.638   2.340
  685SOL     OW 2053   4.604   4.930   1.200
  685SOL    HW1 2054   4.686   4.960   1.153
  685SOL    HW2 2055   4.524   4.950   1.143
  686SOL     OW 2056   4.835   1.086   0.587
  686SOL    HW1 2057   4.786   1.168   0.615
  686SOL    HW2 2058   4.933   1.099   0.603
  687SOL     OW 2059   1.456   5.644   4.924
  687SOL    HW1 2060   1.371   5.592   4.921
  687SOL    HW2 2061   1.528   5.593   4.878
  688SOL     OW 2062   3.837   4.285   3.448
  688SOL    HW1 2063   3.780   4.366   3.442
  688SOL    HW2 2064   3.842   4.241   3.359
  689SOL     OW 2065   4.120   1.571   2.652
  689SOL    HW1 2066   4.181   1.635   2.699
  689SOL    HW2 2067   4.036   1.620   2.626
  690SOL     OW 2068   1.554   0.490   3.275
  690SOL    HW1 2069   1.503   0.404   3.284
  690SOL    HW2 2070   1.638   0.485   3.328
  691SOL     OW 2071   4.416   2.030   1.870
  691SOL    HW1 2072   4.473   1.974   1.930
  691SOL    HW2 2073   4.474   2.090   1.815
  692SOL     OW 2074   2.379   3.725   1.488
  692SOL    HW1 2075   2.397   3.822   1.474
  692SOL    HW2 2076   2.381   3.704   1.586
  693SOL     OW 2077   2.989   4.772   0.556
  693SOL    HW1 2078   3.065   4.837   0.546
  693SOL    HW2 2079   2.902   4.822   0.549
  694SOL     OW 2080   4.555   1.252   4.173
  694SOL    HW1 2081   4.600   1.337   4.200
  694SOL    HW2 2082   4.569   1.183   4.244
  695SOL     OW 2083   2.774   2.041   2.714
  695SOL    HW1 2084   2.817   2.107   2.775
  695SOL    HW2 2085   2.726   1.972   2.768
  696SOL     OW 2086   3.215   6.262   1.416
  696SOL    HW1 2087   3.286   6.286   1.482
  696SOL    HW2 2088   3.154   6.194   1.456
  697SOL     OW 2089   3.747   1.334   3.179
  697SOL    HW1 2090   3.772   1.308   3.086
  697SOL    HW2 2091   3.813   1.401   3.213
  698SOL     OW 2092   3.882   4.601   2.329
  698SOL    HW1 2093   3.982   4.607   2.317
  698SOL    HW2 2094   3.846   4.692   2.347
  699SOL     OW 2095   3.976   4.658   0.341
  699SOL    HW1 2096   3.960   4.757   0.335
  699SOL    HW2 2097   3.892   4.610   0.315
  700SOL     OW 2098   3.833   1.920   0.095
  700SOL    HW1 2099   3.917   1.920   0.040
  700SOL    HW2 2100   3.762   1.972   0.047
  701SOL     OW 2101   2.829   1.001   2.849
  701SOL    HW1 2102   2.869   1.091   2.866
  701SOL    HW2 2103   2.901   0.935   2.830
  702SOL     OW 2104   5.449   2.460   3.286
  702SOL    HW1 2105   5.361   2.434   3.246
  702SOL    HW2 2106   5.483   2.385   3.342
  703SOL     OW 2107   4.081   5.475   3.677
  703SOL    HW1 2108   4.085   5.517   3.768
  703SOL    HW2 2109   4.151   5.515   3.619
  704SOL     OW 2110   6.232   6.019   2.043
  704SOL    HW1 2111   6.267   5.941   2.095
  704SOL    HW2 2112   6.166   6.069   2.099
  705SOL     OW 2113   2.477   1.506   3.678
  705SOL    HW1 2114   2.550   1.532   3.741
  705SOL    HW2 2115   2.462   1.407   3.683
  706SOL     OW 2116   1.621   0.621   4.973
  706SOL    HW1 2117   1.568   0.655   5.051
  706SOL    HW2 2118   1.666   0.536   4.998
  707SOL     OW 2119   1.305   4.087   3.082
  707SOL    HW1 2120   1.309   4.174   3.033
  707SOL    HW2 2121   1.332   4.101   3.177
  708SOL     OW 2122   0.625   0.198   2.720
  708SOL    HW1 2123   0.552   0.178   2.785
  708SOL    HW2 2124   0.713   0.171   2.758
  709SOL     OW 2125   3.727   5.893   4.125
  709SOL    HW1 2126   3.725   5.986   4.086
  709SOL    HW2 2127   3.636   5.852   4.116
  710SOL     OW 2128   4.223   6.078   2.691
  710SOL    HW1 2129   4.278   6.005   2.732
  710SOL    HW2 2130   4.280   6.160   2.680
  711SOL     OW 2131   3.059   5.867   0.078
  711SOL    HW1 2132   3.021   5.960   0.078
  711SOL    HW2 2133   2.999   5.807   0.131
  712SOL     OW 2134   6.168   0.304   0.410
  712SOL    HW1 2135   6.069   0.294   0.404
  712SOL    HW2 2136   6.207   0.223   0.453
  713SOL     OW 2137   2.535   0.693   2.108
  713SOL    HW1 2138   2.510   0.687   2.205
  713SOL    HW2 2139   2.633   0.712   2.101
  714SOL     OW 2140   2.229   2.448   1.973
  714SOL    HW1 2141   2.216   2.544   1.995
  714SOL    HW2 2142   2.327   2.428   1.970
  715SOL     OW 2143   4.544   0.548   3.364
  715SOL    HW1 2144   4.504   0.637   3.343
  715SOL    HW2 2145   4.522   0.484   3.290
  716SOL     OW 2146   3.920   5.031   3.173
  716SOL    HW1 2147   3.859   5.007   3.099
  716SOL    HW2 2148   3.994   4.965   3.179
  717SOL     OW 2149   2.908   2.444   0.105
  717SOL    HW1 2150   2.809   2.455   0.112
  717SOL    HW2 2151   2.947   2.525   0.062
  718SOL     OW 2152   3.343   3.403   0.999
  718SOL    HW1 2153   3.363   3.491   1.042
  718SOL    HW2 2154   3.244   3.389   0.996
  719SOL     OW 2155   1.352   6.203   4.286
  719SOL    HW1 2156   1.303   6.120   4.312
  719SOL    HW2 2157   1.291   6.282   4.298
  720SOL     OW 2158   4.520   1.659   0.473
  720SOL    HW1 2159   4.436   1.699   0.435
  720SOL    HW2 2160   4.509   1.646   0.571
  721SOL     OW 2161   2.453   4.819   2.739
  721SOL    HW1 2162   2.368   4.768   2.723
  721SOL    HW2 2163   2.524   4.755   2.771
  722SOL     OW 2164   4.064   0.392   4.875
  722SOL    HW1 2165   4.143   0.407   4.815
  722SOL    HW2 2166   3.990   0.454   4.847
  723SOL     OW 2167   2.759   0.123   1.314
  723SOL    HW1 2168   2.697   0.129   1.236
  723SOL    HW2 2169   2.849   0.092   1.284
  724SOL     OW 2170   0.235   0.887   0.426
  724SOL    HW1 2171   0.306   0.817   0.421
  724SOL    HW2 2172   0.145   0.843   0.428
  725SOL     OW 2173   1.918   1.748   0.153
  725SOL    HW1 2174   1.870   1.666   0.121
  725SOL    HW2 2175   1.873   1.829   0.116
  726SOL     OW 2176   3.720   5.372   1.872
  726SOL    HW1 2177   3.716   5.311   1.951
  726SOL    HW2 2178   3.808   5.420   1.870
  727SOL     OW 2179   4.447   3.321   3.178
  727SOL    HW1 2180   4.484   3.404   3.220
  727SOL    HW2 2181   4.360   3.298   3.221
  728SOL     OW 2182   5.978   2.760   3.983
  728SOL    HW1 2183   5.938   2.831   4.041
  728SOL    HW2 2184   5.952   2.776   3.887
  729SOL     OW 2185   2.680   1.581   3.860
  729SOL    HW1 2186   2.691   1.624   3.950
  729SOL    HW2 2187   2.762   1.599   3.805
  730SOL     OW 2188   2.011   3.012   2.898
  730SOL    HW1 2189   2.062   3.072   2.960
  730SOL    HW2 2190   2.070   2.936   2.870
  731SOL     OW 2191   0.844   3.828   0.104
  731SOL    HW1 2192   0.850   3.729   0.117
  731SOL    HW2 2193   0.793   3.848   0.021
  732SOL     OW 2194   5.130   4.295   2.621
  732SOL    HW1 2195   5.181   4.342   2.550
  732SOL    HW2 2196   5.129   4.196   2.603
  733SOL     OW 2197   0.310   5.338   3.242
  733SOL    HW1 2198   0.312   5.436   3.263
  733SOL    HW2 2199   0.215   5.309   3.231
  734SOL     OW 2200   3.085   3.496   1.192
  734SOL    HW1 2201   3.045   3.582   1.222
  734SOL    HW2 2202   3.164   3.475   1.249
  735SOL     OW 2203   1.667   2.387   3.803
  735SOL    HW1 2204   1.639   2.397   3.708
  735SOL    HW2 2205   1.762   2.357   3.807
  736SOL     OW 2206   2.228   4.893   4.444
  736SOL    HW1 2207   2.170   4.813   4.424
  736SOL    HW2 2208   2.226   4.911   4.543
  737SOL     OW 2209   5.031   1.814   3.705
  737SOL    HW1 2210   5.082   1.810   3.791
  737SOL    HW2 2211   4.936   1.838   3.724
  738SOL     OW 2212   4.574   0.470   2.887
  738SOL    HW1 2213   4.525   0.390   2.852
  738SOL    HW2 2214   4.653   0.439   2.940
  739SOL     OW 2215   1.260   3.719   2.735
  739SOL    HW1 2216   1.317   3.758   2.662
  739SOL    HW2 2217   1.167   3.708   2.701
  740SOL     OW 2218   2.517   2.442   1.826
  740SOL    HW1 2219   2.447   2.432   1.756
  740SOL    HW2 2220   2.605   2.411   1.790
  741SOL     OW 2221   5.716   2.960   2.831
  741SOL    HW1 2222   5.718   3.017   2.913
  741SOL    HW2 2223   5.809   2.933   2.807
  742SOL     OW 2224   4.170   2.601   4.737
  742SOL    HW1 2225   4.109   2.560   4.805
  742SOL    HW2 2226   4.126   2.680   4.695
  743SOL     OW 2227   5.179   5.019   0.180
  743SOL    HW1 2228   5.175   5.114   0.209
  743SOL    HW2 2229   5.221   4.963   0.252
  744SOL     OW 2230   5.360   1.025   1.695
  744SOL    HW1 2231   5.362   1.027   1.795
  744SOL    HW2 2232   5.324   1.112   1.661
  745SOL     OW 2233   6.195   5.457   1.150
  745SOL    HW1 2234   6.263   5.516   1.107
  745SOL    HW2 2235   6.183   5.374   1.097
  746SOL     OW 2236   1.270   5.269   0.209
  746SOL    HW1 2237   1.319   5.339   0.261
  746SOL    HW2 2238   1.336   5.202   0.174
  747SOL     OW 2239   0.621   1.609   1.369
  747SOL    HW1 2240   0.642   1.705   1.349
  747SOL    HW2 2241   0.701   1.566   1.412
  748SOL     OW 2242   4.345   5.558   3.215
  748SOL    HW1 2243   4.292   5.638   3.243
  748SOL    HW2 2244   4.359   5.561   3.116
  749SOL     OW 2245   4.144   1.526   1.842
  749SOL    HW1 2246   4.046   1.519   1.822
  749SOL    HW2 2247   4.179   1.614   1.811
  750SOL     OW 2248   1.438   0.520   2.185
  750SOL    HW1 2249   1.534   0.545   2.175
  750SOL    HW2 2250   1.393   0.523   2.096
  751SOL     OW 2251   4.534   4.441   3.442
  751SOL    HW1 2252   4.464   4.376   3.470
  751SOL    HW2 2253   4.524   4.526   3.494
  752SOL     OW 2254   0.119   0.466   0.975
  752SOL    HW1 2255   0.208   0.430   0.949
  752SOL    HW2 2256   0.066   0.395   1.021
  753SOL     OW 2257   1.848   3.807   3.304
  753SOL    HW1 2258   1.817   3.727   3.355
  753SOL    HW2 2259   1.844   3.887   3.363
  754SOL     OW 2260   4.961   4.477   1.411
  754SOL    HW1 2261   4.943   4.379   1.399
  754SOL    HW2 2262   5.049   4.499   1.369
  755SOL     OW 2263   2.598   2.858   3.815
  755SOL    HW1 2264   2.546   2.889   3.895
  755SOL    HW2 2265   2.675   2.921   3.800
  756SOL     OW 2266   4.666   1.057   2.203
  756SOL    HW1 2267   4.726   1.080   2.127
  756SOL    HW2 2268   4.629   1.142   2.243
  757SOL     OW 2269   5.279   1.907   4.749
  757SOL    HW1 2270   5.285   1.890   4.848
  757SOL    HW2 2271   5.229   1.832   4.706
  758SOL     OW 2272   4.809   3.085   3.662
  758SOL    HW1 2273   4.727   3.043   3.624
  758SOL    HW2 2274   4.856   3.138   3.591
  759SOL     OW 2275   5.707   5.611   3.220
  759SOL    HW1 2276   5.740   5.587   3.312
  759SOL    HW2 2277   5.620   5.660   3.228
  760SOL     OW 2278   0.863   2.720   1.320
  760SOL    HW1 2279   0.830   2.810   1.293
  760SOL    HW2 2280   0.788   2.654   1.315
  761SOL     OW 2281   3.378   3.745   1.786
  761SOL    HW1 2282   3.290   3.699   1.796
  761SOL    HW2 2283   3.373   3.813   1.713
  762SOL     OW 2284   2.499   2.528   3.043
  762SOL    HW1 2285   2.511   2.595   2.970
  762SOL    HW2 2286   2.559   2.450   3.027
  763SOL     OW 2287   0.490   4.265   1.428
  763SOL    HW1 2288   0.414   4.231   1.482
  763SOL    HW2 2289   0.490   4.220   1.338
  764SOL     OW 2290   5.881   4.128   4.115
  764SOL    HW1 2291   5.967   4.174   4.093
  764SOL    HW2 2292   5.834   4.179   4.187
  765SOL     OW 2293   3.055   5.103   3.493
  765SOL    HW1 2294   3.097   5.078   3.406
  765SOL    HW2 2295   3.000   5.027   3.527
  766SOL     OW 2296   5.454   1.861   4.399
  766SOL    HW1 2297   5.377   1.904   4.447
  766SOL    HW2 2298   5.540   1.892   4.439
  767SOL     OW 2299   4.874   3.846   4.143
  767SOL    HW1 2300   4.962   3.799   4.130
  767SOL    HW2 2301   4.860   3.910   4.067
  768SOL     OW 2302   4.906   1.361   3.533
  768SOL    HW1 2303   4.932   1.272   3.570
  768SOL    HW2 2304   4.917   1.431   3.604
  769SOL     OW 2305   2.081   0.735   0.410
  769SOL    HW1 2306   2.107   0.650   0.456
  769SOL    HW2 2307   2.026   0.713   0.330
  770SOL     OW 2308   1.296   4.968   4.408
  770SOL    HW1 2309   1.226   4.897   4.404
  770SOL    HW2 2310   1.370   4.945   4.345
  771SOL     OW 2311   5.544   4.489   4.719
  771SOL    HW1 2312   5.548   4.589   4.722
  771SOL    HW2 2313   5.453   4.458   4.749
  772SOL     OW 2314   2.972   1.329   3.806
  772SOL    HW1 2315   3.033   1.262   3.764
  772SOL    HW2 2316   2.913   1.284   3.874
  773SOL     OW 2317   1.685   6.067   3.770
  773SOL    HW1 2318   1.596   6.032   3.799
  773SOL    HW2 2319   1.754   5.997   3.785
  774SOL     OW 2320   3.429   4.933   0.795
  774SOL    HW1 2321   3.390   4.844   0.774
  774SOL    HW2 2322   3.481   4.928   0.880
  775SOL     OW 2323   3.515   6.042   2.642
  775SOL    HW1 2324   3.436   5.999   2.599
  775SOL    HW2 2325   3.551   5.983   2.714
  776SOL     OW 2326   1.405   2.383   4.242
  776SOL    HW1 2327   1.448   2.367   4.152
  776SOL    HW2 2328   1.401   2.296   4.292
  777SOL     OW 2329   5.264   1.176   4.870
  777SOL    HW1 2330   5.287   1.249   4.935
  777SOL    HW2 2331   5.281   1.087   4.912
  778SOL     OW 2332   3.237   1.336   2.524
  778SOL    HW1 2333   3.143   1.339   2.558
  778SOL    HW2 2334   3.299   1.322   2.601
  779SOL     OW 2335   0.330   5.789   1.988
  779SOL    HW1 2336   0.272   5.727   1.934
  779SOL    HW2 2337   0.345   5.873   1.937
  780SOL     OW 2338   2.120   3.844   4.385
  780SOL    HW1 2339   2.042   3.904   4.399
  780SOL    HW2 2340   2.094   3.750   4.406
  781SOL     OW 2341   0.428   6.124   0.202
  781SOL    HW1 2342   0.467   6.142   0.111
  781SOL    HW2 2343   0.437   6.027   0.223
  782SOL     OW 2344   0.065   6.033   2.476
  782SOL    HW1 2345   0.089   6.075   2.564
  782SOL    HW2 2346   0.145   6.030   2.417
  783SOL     OW 2347   1.655   4.175   1.832
  783SOL    HW1 2348   1.692   4.157   1.741
  783SOL    HW2 2349   1.602   4.260   1.830
  784SOL     OW 2350   2.196   2.447   0.084
  784SOL    HW1 2351   2.197   2.352   0.054
  784SOL    HW2 2352   2.153   2.452   0.174
  785SOL     OW 2353   1.743   0.564   3.468
  785SOL    HW1 2354   1.812   0.623   3.426
  785SOL    HW2 2355   1.660   0.617   3.487
  786SOL     OW 2356   0.884   2.534   2.746
  786SOL    HW1 2357   0.809   2.600   2.746
  786SOL    HW2 2358   0.852   2.447   2.710
  787SOL     OW 2359   4.180   5.544   4.791
  787SOL    HW1 2360   4.280   5.545   4.798
  787SOL    HW2 2361   4.153   5.492   4.710
  788SOL     OW 2362   3.480   4.622   4.022
  788SOL    HW1 2363   3.541   4.680   4.076
  788SOL    HW2 2364   3.499   4.526   4.041
  789SOL     OW 2365   1.965   3.162   2.344
  789SOL    HW1 2366   2.037   3.092   2.343
  789SOL    HW2 2367   1.938   3.181   2.438
  790SOL     OW 2368   5.663   4.332   4.390
  790SOL    HW1 2369   5.684   4.409   4.450
  790SOL    HW2 2370   5.572   4.343   4.350
  791SOL     OW 2371   4.550   2.771   4.288
  791SOL    HW1 2372   4.650   2.783   4.290
  791SOL    HW2 2373   4.526   2.683   4.329
  792SOL     OW 2374   5.550   1.382   3.914
  792SOL    HW1 2375   5.640   1.364   3.953
  792SOL    HW2 2376   5.508   1.296   3.887
  793SOL     OW 2377   5.743   1.669   4.075
  793SOL    HW1 2378   5.687   1.736   4.124
  793SOL    HW2 2379   5.684   1.614   4.017
  794SOL     OW 2380   2.878   2.566   0.975
  794SOL    HW1 2381   2.903   2.486   0.920
  794SOL    HW2 2382   2.780   2.582   0.968
  795SOL     OW 2383   1.790   4.587   1.524
  795SOL    HW1 2384   1.716   4.623   1.469
  795SOL    HW2 2385   1.877   4.627   1.494
  796SOL     OW 2386   1.127   2.191   4.382
  796SOL    HW1 2387   1.055   2.214   4.447
  796SOL    HW2 2388   1.133   2.261   4.311
  797SOL     OW 2389   4.142   0.634   2.406
  797SOL    HW1 2390   4.183   0.692   2.335
  797SOL    HW2 2391   4.043   0.639   2.399
  798SOL     OW 2392   2.115   2.169   3.931
  798SOL    HW1 2393   2.039   2.109   3.956
  798SOL    HW2 2394   2.202   2.120   3.942
  799SOL     OW 2395   1.196   2.047   2.998
  799SOL    HW1 2396   1.170   2.106   2.921
  799SOL    HW2 2397   1.256   1.974   2.965
  800SOL     OW 2398   2.734   0.380   2.235
  800SOL    HW1 2399   2.696   0.414   2.321
  800SOL    HW2 2400   2.668   0.394   2.161
  801SOL     OW 2401   2.412   3.782   4.664
  801SOL    HW1 2402   2.390   3.869   4.619
  801SOL    HW2 2403   2.361   3.708   4.621
  802SOL     OW 2404   4.352   5.913   1.140
  802SOL    HW1 2405   4.278   5.930   1.075
  802SOL    HW2 2406   4.323   5.843   1.206
  803SOL     OW 2407   2.824   1.430   4.585
  803SOL    HW1 2408   2.729   1.447   4.562
  803SOL    HW2 2409   2.877   1.417   4.502
  804SOL     OW 2410   0.536   0.903   3.971
  804SOL    HW1 2411   0.619   0.858   3.939
  804SOL    HW2 2412   0.470   0.909   3.896
  805SOL     OW 2413   1.845   5.719   1.403
  805SOL    HW1 2414   1.867   5.724   1.306
  805SOL    HW2 2415   1.882   5.800   1.450
  806SOL     OW 2416   5.746   1.320   1.734
  806SOL    HW1 2417   5.669   1.348   1.791
  806SOL    HW2 2418   5.828   1.310   1.790
  807SOL     OW 2419   0.859   3.878   0.972
  807SOL    HW1 2420   0.901   3.963   1.002
  807SOL    HW2 2421   0.930   3.818   0.934
  808SOL     OW 2422   5.770   2.731   0.249
  808SOL    HW1 2423   5.774   2.782   0.163
  808SOL    HW2 2424   5.813   2.785   0.321
  809SOL     OW 2425   0.820   4.440   2.380
  809SOL    HW1 2426   0.815   4.539   2.392
  809SOL    HW2 2427   0.878   4.401   2.451
  810SOL     OW 2428   5.093   5.402   0.230
  810SOL    HW1 2429   5.121   5.437   0.319
  810SOL    HW2 2430   5.027   5.328   0.242
  811SOL     OW 2431   6.082   2.459   0.170
  811SOL    HW1 2432   6.073   2.444   0.072
  811SOL    HW2 2433   6.134   2.383   0.210
  812SOL     OW 2434   3.924   1.811   0.865
  812SOL    HW1 2435   3.981   1.740   0.908
  812SOL    HW2 2436   3.980   1.891   0.844
  813SOL     OW 2437   2.593   6.175   2.409
  813SOL    HW1 2438   2.578   6.078   2.427
  813SOL    HW2 2439   2.614   6.221   2.496
  814SOL     OW 2440   2.027   5.000   3.001
  814SOL    HW1 2441   1.944   5.052   2.981
  814SOL    HW2 2442   2.098   5.023   2.935
  815SOL     OW 2443   1.462   0.078   2.567
  815SOL    HW1 2444   1.510   0.088   2.480
  815SOL    HW2 2445   1.452  -0.019   2.589
  816SOL     OW 2446   2.509   1.838   3.378
  816SOL    HW1 2447   2.460   1.764   3.425
  816SOL    HW2 2448   2.449   1.917   3.371
  817SOL     OW 2449   4.368   5.411   3.445
  817SOL    HW1 2450   4.368   5.462   3.359
  817SOL    HW2 2451   4.315   5.327   3.434
  818SOL     OW 2452   4.494   2.008   3.328
  818SOL    HW1 2453   4.445   1.971   3.249
  818SOL    HW2 2454   4.541   2.092   3.301
  819SOL     OW 2455   4.667   0.145   3.821
  819SOL    HW1 2456   4.619   0.233   3.823
  819SOL    HW2 2457   4.709   0.132   3.731
  820SOL     OW 2458   0.433   4.113   2.552
  820SOL    HW1 2459   0.521   4.137   2.591
  820SOL    HW2 2460   0.368   4.092   2.626
  821SOL     OW 2461   2.900   1.400   0.266
  821SOL    HW1 2462   2.890   1.500   0.264
  821SOL    HW2 2463   2.893   1.364   0.173
  822SOL     OW 2464   2.226   4.302   0.852
  822SOL    HW1 2465   2.295   4.312   0.924
  822SOL    HW2 2466   2.270   4.266   0.770
  823SOL     OW 2467   4.335   1.519   2.228
  823SOL    HW1 2468   4.285   1.528   2.142
  823SOL    HW2 2469   4.279   1.551   2.304
  824SOL     OW 2470   1.407   2.927   3.192
  824SOL    HW1 2471   1.412   3.020   3.228
  824SOL    HW2 2472   1.348   2.925   3.111
  825SOL     OW 2473   0.123   0.081   1.970
  825SOL    HW1 2474   0.128   0.113   2.065
  825SOL    HW2 2475   0.059   0.138   1.919
  826SOL     OW 2476   4.238   2.587   2.026
  826SOL    HW1 2477   4.163   2.608   1.962
  826SOL    HW2 2478   4.256   2.489   2.024
  827SOL     OW 2479   5.237   5.528   2.572
  827SOL    HW1 2480   5.235   5.450   2.509
  827SOL    HW2 2481   5.330   5.563   2.578
  828SOL     OW 2482   3.903   5.355   4.337
  828SOL    HW1 2483   3.823   5.298   4.316
  828SOL    HW2 2484   3.973   5.299   4.383
  829SOL     OW 2485   2.134   4.464   2.732
  829SOL    HW1 2486   2.066   4.391   2.724
  829SOL    HW2 2487   2.139   4.514   2.646
  830SOL     OW 2488   5.967   5.168   0.522
  830SOL    HW1 2489   5.964   5.250   0.465
  830SOL    HW2 2490   6.055   5.122   0.510
  831SOL     OW 2491   3.555   2.733   2.469
  831SOL    HW1 2492   3.464   2.701   2.444
  831SOL    HW2 2493   3.612   2.656   2.496
  832SOL     OW 2494   3.377   3.609   1.291
  832SOL    HW1 2495   3.385   3.709   1.291
  832SOL    HW2 2496   3.461   3.569   1.329
  833SOL     OW 2497   5.364   3.952   2.301
  833SOL    HW1 2498   5.344   4.013   2.225
  833SOL    HW2 2499   5.457   3.916   2.291
  834SOL     OW 2500   2.887   2.380   3.029
  834SOL    HW1 2501   2.838   2.374   3.116
  834SOL    HW2 2502   2.979   2.342   3.040
  835SOL     OW 2503   5.696   4.984   2.603
  835SOL    HW1 2504   5.726   4.950   2.692
  835SOL    HW2 2505   5.773   4.981   2.539
  836SOL     OW 2506   2.853   3.302   3.824
  836SOL    HW1 2507   2.840   3.235   3.897
  836SOL    HW2 2508   2.913   3.375   3.855
  837SOL     OW 2509   2.988   0.755   2.509
  837SOL    HW1 2510   3.082   0.733   2.485
  837SOL    HW2 2511   2.983   0.780   2.605
  838SOL     OW 2512   0.218   4.627   0.402
  838SOL    HW1 2513   0.240   4.536   0.439
  838SOL    HW2 2514   0.293   4.690   0.422
  839SOL     OW 2515   5.786   4.084   1.888
  839SOL    HW1 2516   5.774   4.175   1.930
  839SOL    HW2 2517   5.699   4.035   1.892
  840SOL     OW 2518   0.502   1.313   1.632
  840SOL    HW1 2519   0.436   1.350   1.696
  840SOL    HW2 2520   0.594   1.318   1.672
  841SOL     OW 2521   3.825   4.341   2.005
  841SOL    HW1 2522   3.859   4.259   2.049
  841SOL    HW2 2523   3.863   4.422   2.050
  842SOL     OW 2524   1.302   0.491   2.814
  842SOL    HW1 2525   1.358   0.414   2.785
  842SOL    HW2 2526   1.221   0.457   2.861
  843SOL     OW 2527   4.375   1.088   0.999
  843SOL    HW1 2528   4.435   1.155   1.042
  843SOL    HW2 2529   4.402   0.995   1.026
  844SOL     OW 2530   6.204   0.802   1.308
  844SOL    HW1 2531   6.231   0.790   1.213
  844SOL    HW2 2532   6.106   0.781   1.318
  845SOL     OW 2533   1.641   4.306   3.124
  845SOL    HW1 2534   1.660   4.368   3.048
  845SOL    HW2 2535   1.677   4.346   3.209
  846SOL     OW 2536   0.970   1.512   2.393
  846SOL    HW1 2537   1.022   1.427   2.380
  846SOL    HW2 2538   0.908   1.501   2.470
  847SOL     OW 2539   4.499   2.957   3.669
  847SOL    HW1 2540   4.536   2.897   3.740
  847SOL    HW2 2541   4.402   2.974   3.688
  848SOL     OW 2542   3.555   2.744   0.857
  848SOL    HW1 2543   3.637   2.712   0.810
  848SOL    HW2 2544   3.529   2.834   0.822
  849SOL     OW 2545   4.954   5.853   4.190
  849SOL    HW1 2546   4.882   5.912   4.225
  849SOL    HW2 2547   5.038   5.867   4.242
  850SOL     OW 2548   3.188   2.967   2.663
  850SOL    HW1 2549   3.223   2.966   2.569
  850SOL    HW2 2550   3.113   3.033   2.670
  851SOL     OW 2551   6.097   3.786   4.170
  851SOL    HW1 2552   6.170   3.717   4.172
  851SOL    HW2 2553   6.137   3.877   4.155
  852SOL     OW 2554   1.814   1.232   4.075
  852SOL    HW1 2555   1.905   1.247   4.038
  852SOL    HW2 2556   1.817   1.159   4.143
  853SOL     OW 2557   3.410   3.057   1.662
  853SOL    HW1 2558   3.446   3.036   1.752
  853SOL    HW2 2559   3.468   3.016   1.592
  854SOL     OW 2560   5.407   3.495   4.931
  854SOL    HW1 2561   5.458   3.530   4.852
  854SOL    HW2 2562   5.458   3.420   4.973
  855SOL     OW 2563   3.898   1.820   4.885
  855SOL    HW1 2564   3.918   1.916   4.907
  855SOL    HW2 2565   3.925   1.762   4.961
  856SOL     OW 2566   1.316   0.340   0.893
  856SOL    HW1 2567   1.220   0.318   0.912
  856SOL    HW2 2568   1.338   0.315   0.799
  857SOL     OW 2569   5.813   0.880   4.655
  857SOL    HW1 2570   5.850   0.897   4.746
  857SOL    HW2 2571   5.868   0.930   4.588
  858SOL     OW 2572   3.453   2.006   0.963
  858SOL    HW1 2573   3.387   2.079   0.943
  858SOL    HW2 2574   3.523   2.004   0.891
  859SOL     OW 2575   1.770   3.191   3.876
  859SOL    HW1 2576   1.817   3.231   3.955
  859SOL    HW2 2577   1.763   3.092   3.889
  860SOL     OW 2578   5.278   5.014   1.489
  860SOL    HW1 2579   5.208   4.967   1.437
  860SOL    HW2 2580   5.259   5.112   1.490
  861SOL     OW 2581   0.602   1.360   2.560
  861SOL    HW1 2582   0.604   1.263   2.537
  861SOL    HW2 2583   0.578   1.371   2.657
  862SOL     OW 2584   1.898   3.803   2.898
  862SOL    HW1 2585   1.869   3.743   2.972
  862SOL    HW2 2586   1.841   3.885   2.897
  863SOL     OW 2587   2.745   4.466   2.502
  863SOL    HW1 2588   2.834   4.422   2.516
  863SOL    HW2 2589   2.691   4.412   2.437
  864SOL     OW 2590   5.613   2.919   4.280
  864SOL    HW1 2591   5.518   2.892   4.272
  864SOL    HW2 2592   5.637   2.930   4.377
  865SOL     OW 2593   1.519   2.290   4.007
  865SOL    HW1 2594   1.573   2.340   3.939
  865SOL    HW2 2595   1.457   2.227   3.960
  866SOL     OW 2596   0.896   0.244   2.407
  866SOL    HW1 2597   0.804   0.235   2.444
  866SOL    HW2 2598   0.926   0.339   2.417
  867SOL     OW 2599   1.161   1.171   4.894
  867SOL    HW1 2600   1.236   1.104   4.888
  867SOL    HW2 2601   1.187   1.254   4.843
  868SOL     OW 2602   3.285   4.718   3.826
  868SOL    HW1 2603   3.368   4.721   3.881
  868SOL    HW2 2604   3.249   4.624   3.825
  869SOL     OW 2605   3.415   5.112   4.062
  869SOL    HW1 2606   3.492   5.138   4.004
  869SOL    HW2 2607   3.355   5.191   4.074
  870SOL     OW 2608   1.778   5.262   0.528
  870SOL    HW1 2609   1.823   5.289   0.442
  870SOL    HW2 2610   1.705   5.197   0.509
  871SOL     OW 2611   6.310   0.555   0.365
  871SOL    HW1 2612   6.270   0.465   0.383
  871SOL    HW2 2613   6.246   0.610   0.311
  872SOL     OW 2614   2.964   0.389   4.594
  872SOL    HW1 2615   2.900   0.415   4.522
  872SOL    HW2 2616   2.914   0.353   4.673
  873SOL     OW 2617   0.820   4.016   4.481
  873SOL    HW1 2618   0.880   3.942   4.513
  873SOL    HW2 2619   0.795   4.074   4.559
  874SOL     OW 2620   4.005   2.511   3.036
  874SOL    HW1 2621   3.907   2.529   3.034
  874SOL    HW2 2622   4.052   2.578   2.979
  875SOL     OW 2623   1.043   2.317   0.302
  875SOL    HW1 2624   1.112   2.297   0.233
  875SOL    HW2 2625   0.981   2.388   0.268
  876SOL     OW 2626   1.790   1.720   4.621
  876SOL    HW1 2627   1.705   1.737   4.571
  876SOL    HW2 2628   1.840   1.645   4.577
  877SOL     OW 2629   0.431   3.054   1.608
  877SOL    HW1 2630   0.506   3.085   1.667
  877SOL    HW2 2631   0.357   3.016   1.665
  878SOL     OW 2632   5.400   4.556   2.235
  878SOL    HW1 2633   5.377   4.633   2.294
  878SOL    HW2 2634   5.474   4.503   2.277
  879SOL     OW 2635   3.689   0.904   3.003
  879SOL    HW1 2636   3.621   0.967   2.966
  879SOL    HW2 2637   3.694   0.914   3.103
  880SOL     OW 2638   2.956   4.239   3.584
  880SOL    HW1 2639   2.959   4.192   3.672
  880SOL    HW2 2640   2.865   4.279   3.571
  881SOL     OW 2641   0.595   2.769   4.416
  881SOL    HW1 2642   0.526   2.807   4.478
  881SOL    HW2 2643   0.685   2.809   4.438
  882SOL     OW 2644   3.526   5.108   1.392
  882SOL    HW1 2645   3.569   5.198   1.385
  882SOL    HW2 2646   3.455   5.099   1.322
  883SOL     OW 2647   2.246   3.600   4.214
  883SOL    HW1 2648   2.290   3.579   4.127
  883SOL    HW2 2649   2.235   3.699   4.223
  884SOL     OW 2650   4.274   3.112   2.521
  884SOL    HW1 2651   4.358   3.165   2.531
  884SOL    HW2 2652   4.296   3.015   2.514
  885SOL     OW 2653   2.784   2.338   3.285
  885SOL    HW1 2654   2.751   2.254   3.328
  885SOL    HW2 2655   2.781   2.413   3.351
  886SOL     OW 2656   4.103   0.941   4.801
  886SOL    HW1 2657   4.193   0.898   4.796
  886SOL    HW2 2658   4.040   0.891   4.742
  887SOL     OW 2659   4.689   4.727   2.348
  887SOL    HW1 2660   4.785   4.754   2.357
  887SOL    HW2 2661   4.631   4.797   2.391
  888SOL     OW 2662   3.126   0.211   3.034
  888SOL    HW1 2663   3.081   0.125   3.013
  888SOL    HW2 2664   3.219   0.193   3.067
  889SOL     OW 2665   2.093   5.469   3.139
  889SOL    HW1 2666   2.046   5.386   3.109
  889SOL    HW2 2667   2.157   5.447   3.212
  890SOL     OW 2668   5.795   3.806   4.012
  890SOL    HW1 2669   5.729   3.839   4.080
  890SOL    HW2 2670   5.885   3.845   4.031
  891SOL     OW 2671   0.392   4.497   1.742
  891SOL    HW1 2672   0.468   4.436   1.762
  891SOL    HW2 2673   0.425   4.591   1.732
  892SOL     OW 2674   0.313   5.092   0.156
  892SOL    HW1 2675   0.341   5.080   0.252
  892SOL    HW2 2676   0.388   5.135   0.106
  893SOL     OW 2677   2.751   5.615   0.678
  893SOL    HW1 2678   2.696   5.537   0.648
  893SOL    HW2 2679   2.777   5.669   0.598
  894SOL     OW 2680   4.663   6.155   1.539
  894SOL    HW1 2681   4.565   6.166   1.520
  894SOL    HW2 2682   4.684   6.192   1.629
  895SOL     OW 2683   0.973   2.900   2.572
  895SOL    HW1 2684   1.011   2.900   2.664
  895SOL    HW2 2685   1.014   2.826   2.518
  896SOL     OW 2686   2.248   4.953   2.587
  896SOL    HW1 2687   2.334   4.941   2.637
  896SOL    HW2 2688   2.263   5.013   2.509
  897SOL     OW 2689   5.448   0.344   0.306
  897SOL    HW1 2690   5.458   0.442   0.318
  897SOL    HW2 2691   5.397   0.325   0.222
  898SOL     OW 2692   0.426   1.287   2.331
  898SOL    HW1 2693   0.505   1.305   2.273
  898SOL    HW2 2694   0.414   1.363   2.395
  899SOL     OW 2695   4.899   3.974   1.052
  899SOL    HW1 2696   4.801   3.956   1.042
  899SOL    HW2 2697   4.951   3.897   1.015
  900SOL     OW 2698   5.912   4.821   0.472
  900SOL    HW1 2699   6.005   4.856   0.462
  900SOL    HW2 2700   5.847   4.897   0.464
  901SOL     OW 2701   4.272   1.162   3.125
  901SOL    HW1 2702   4.318   1.121   3.204
  901SOL    HW2 2703   4.242   1.089   3.063
  902SOL     OW 2704   0.973   0.326   3.353
  902SOL    HW1 2705   1.006   0.231   3.353
  902SOL    HW2 2706   1.028   0.381   3.291
  903SOL     OW 2707   2.351   2.401   1.610
  903SOL    HW1 2708   2.285   2.327   1.610
  903SOL    HW2 2709   2.338   2.458   1.528
  904SOL     OW 2710   2.809   5.596   4.006
  904SOL    HW1 2711   2.712   5.573   4.004
  904SOL    HW2 2712   2.861   5.523   3.962
  905SOL     OW 2713   5.513   5.255   1.856
  905SOL    HW1 2714   5.603   5.300   1.857
  905SOL    HW2 2715   5.478   5.253   1.763
  906SOL     OW 2716   3.506   3.167   1.127
  906SOL    HW1 2717   3.465   3.241   1.073
  906SOL    HW2 2718   3.555   3.104   1.065
  907SOL     OW 2719   1.713   4.569   0.218
  907SOL    HW1 2720   1.709   4.565   0.118
  907SOL    HW2 2721   1.681   4.483   0.256
  908SOL     OW 2722   3.901   1.450   4.274
  908SOL    HW1 2723   3.871   1.545   4.280
  908SOL    HW2 2724   3.985   1.444   4.220
  909SOL     OW 2725   1.055   2.520   0.725
  909SOL    HW1 2726   0.968   2.522   0.773
  909SOL    HW2 2727   1.043   2.483   0.633
  910SOL     OW 2728   3.436   2.246   4.821
  910SOL    HW1 2729   3.513   2.225   4.761
  910SOL    HW2 2730   3.435   2.183   4.898
  911SOL     OW 2731   3.000   3.037   2.450
  911SOL    HW1 2732   2.924   3.100   2.434
  911SOL    HW2 2733   2.964   2.946   2.472
  912SOL     OW 2734   5.877   1.397   4.637
  912SOL    HW1 2735   5.798   1.356   4.682
  912SOL    HW2 2736   5.875   1.496   4.648
  913SOL     OW 2737   3.390   3.439   4.781
  913SOL    HW1 2738   3.455   3.452   4.707
  913SOL    HW2 2739   3.380   3.341   4.801
  914SOL     OW 2740   1.550   4.170   2.165
  914SOL    HW1 2741   1.478   4.233   2.139
  914SOL    HW2 2742   1.555   4.095   2.099
  915SOL     OW 2743   2.487   0.274   4.327
  915SOL    HW1 2744   2.419   0.311   4.264
  915SOL    HW2 2745   2.468   0.177   4.344
  916SOL     OW 2746   4.097   2.821   4.541
  916SOL    HW1 2747   4.068   2.780   4.454
  916SOL    HW2 2748   4.179   2.876   4.527
  917SOL     OW 2749   5.211   1.436   1.882
  917SOL    HW1 2750   5.140   1.497   1.846
  917SOL    HW2 2751   5.238   1.467   1.973
  918SOL     OW 2752   2.619   3.578   0.823
  918SOL    HW1 2753   2.676   3.521   0.882
  918SOL    HW2 2754   2.538   3.607   0.873
  919SOL     OW 2755   0.606   4.512   1.479
  919SOL    HW1 2756   0.661   4.491   1.559
  919SOL    HW2 2757   0.555   4.431   1.450
  920SOL     OW 2758   6.104   1.230   0.411
  920SOL    HW1 2759   6.170   1.297   0.445
  920SOL    HW2 2760   6.133   1.138   0.438
  921SOL     OW 2761   5.861   1.595   1.181
  921SOL    HW1 2762   5.956   1.622   1.165
  921SOL    HW2 2763   5.821   1.564   1.095
  922SOL     OW 2764   6.232   1.729   4.613
  922SOL    HW1 2765   6.133   1.714   4.613
  922SOL    HW2 2766   6.252   1.824   4.638
  923SOL     OW 2767   2.382   5.340   3.909
  923SOL    HW1 2768   2.353   5.330   3.813
  923SOL    HW2 2769   2.395   5.437   3.930
  924SOL     OW 2770   2.315   5.444   2.584
  924SOL    HW1 2771   2.369   5.527   2.590
  924SOL    HW2 2772   2.244   5.445   2.655
  925SOL     OW 2773   1.176   4.820   1.539
  925SOL    HW1 2774   1.078   4.802   1.527
  925SOL    HW2 2775   1.203   4.896   1.481
  926SOL     OW 2776   5.851   5.484   3.854
  926SOL    HW1 2777   5.856   5.505   3.756
  926SOL    HW2 2778   5.873   5.567   3.906
  927SOL     OW 2779   3.512   5.102   1.727
  927SOL    HW1 2780   3.599   5.094   1.679
  927SOL    HW2 2781   3.478   5.196   1.721
  928SOL     OW 2782   1.364   5.868   0.776
  928SOL    HW1 2783   1.328   5.890   0.866
  928SOL    HW2 2784   1.294   5.883   0.707
  929SOL     OW 2785   0.689   3.055   2.305
  929SOL    HW1 2786   0.650   3.138   2.267
  929SOL    HW2 2787   0.773   3.078   2.355
  930SOL     OW 2788   1.000   0.452   1.311
  930SOL    HW1 2789   1.091   0.494   1.318
  930SOL    HW2 2790   1.010   0.358   1.278
  931SOL     OW 2791   1.536   0.326   3.734
  931SOL    HW1 2792   1.590   0.410   3.738
  931SOL    HW2 2793   1.460   0.339   3.670
  932SOL     OW 2794   3.080   0.188   1.564
  932SOL    HW1 2795   3.130   0.171   1.479
  932SOL    HW2 2796   3.063   0.101   1.611
  933SOL     OW 2797   3.121   4.907   4.234
  933SOL    HW1 2798   3.075   4.870   4.153
  933SOL    HW2 2799   3.216   4.928   4.211
  934SOL     OW 2800   0.213   4.311   4.854
  934SOL    HW1 2801   0.236   4.402   4.888
  934SOL    HW2 2802   0.125   4.315   4.806
  935SOL     OW 2803   2.645   5.882   0.673
  935SOL    HW1 2804   2.654   5.945   0.750
  935SOL    HW2 2805   2.645   5.788   0.707
  936SOL     OW 2806   5.478   4.783   3.585
  936SOL    HW1 2807   5.428   4.699   3.603
  936SOL    HW2 2808   5.572   4.773   3.616
  937SOL     OW 2809   5.109   2.347   1.762
  937SOL    HW1 2810   5.202   2.379   1.746
  937SOL    HW2 2811   5.079   2.373   1.854
  938SOL     OW 2812   3.556   2.176   2.580
  938SOL    HW1 2813   3.592   2.242   2.514
  938SOL    HW2 2814   3.484   2.122   2.537
  939SOL     OW 2815   5.466   5.224   1.439
  939SOL    HW1 2816   5.563   5.246   1.444
  939SOL    HW2 2817   5.454   5.126   1.456
  940SOL     OW 2818   1.879   5.582   1.942
  940SOL    HW1 2819   1.941   5.522   1.891
  940SOL    HW2 2820   1.906   5.584   2.038
  941SOL     OW 2821   1.662   0.152   0.668
  941SOL    HW1 2822   1.635   0.102   0.751
  941SOL    HW2 2823   1.696   0.088   0.600
  942SOL     OW 2824   2.364   5.162   3.234
  942SOL    HW1 2825   2.365   5.104   3.152
  942SOL    HW2 2826   2.455   5.166   3.273
  943SOL     OW 2827   0.671   6.225   1.805
  943SOL    HW1 2828   0.751   6.168   1.824
  943SOL    HW2 2829   0.676   6.309   1.859
  944SOL     OW 2830   0.638   2.562   1.308
  944SOL    HW1 2831   0.548   2.606   1.311
  944SOL    HW2 2832   0.631   2.470   1.348
  945SOL     OW 2833   1.496   0.498   1.029
  945SOL    HW1 2834   1.433   0.433   0.986
  945SOL    HW2 2835   1.500   0.582   0.974
  946SOL     OW 2836   3.897   5.705   2.437
  946SOL    HW1 2837   3.970   5.771   2.453
  946SOL    HW2 2838   3.891   5.684   2.339
  947SOL     OW 2839   5.259   4.341   1.184
  947SOL    HW1 2840   5.249   4.241   1.178
  947SOL    HW2 2841   5.349   4.367   1.151
  948SOL     OW 2842   4.761   3.299   2.334
  948SOL    HW1 2843   4.734   3.361   2.407
  948SOL    HW2 2844   4.686   3.237   2.312
  949SOL     OW 2845   2.616   4.178   4.429
  949SOL    HW1 2846   2.620   4.193   4.330
  949SOL    HW2 2847   2.522   4.155   4.455
  950SOL     OW 2848   2.519   0.106   2.967
  950SOL    HW1 2849   2.613   0.086   2.939
  950SOL    HW2 2850   2.458   0.100   2.888
  951SOL     OW 2851   0.220   5.052   1.669
  951SOL    HW1 2852   0.194   5.146   1.650
  951SOL    HW2 2853   0.307   5.032   1.625
  952SOL     OW 2854   3.160   5.765   4.249
  952SOL    HW1 2855   3.142   5.681   4.199
  952SOL    HW2 2856   3.132   5.844   4.194
  953SOL     OW 2857   2.709   2.107   0.264
  953SOL    HW1 2858   2.668   2.058   0.341
  953SOL    HW2 2859   2.805   2.125   0.283
  954SOL     OW 2860   5.947   1.711   3.375
  954SOL    HW1 2861   5.976   1.795   3.421
  954SOL    HW2 2862   6.019   1.642   3.382
  955SOL     OW 2863   1.045   6.258   0.772
  955SOL    HW1 2864   1.037   6.166   0.811
  955SOL    HW2 2865   0.986   6.321   0.823
  956SOL     OW 2866   4.427   0.436   3.139
  956SOL    HW1 2867   4.334   0.400   3.144
  956SOL    HW2 2868   4.437   0.492   3.057
  957SOL     OW 2869   5.588   1.339   4.745
  957SOL    HW1 2870   5.545   1.249   4.742
  957SOL    HW2 2871   5.549   1.397   4.673
  958SOL     OW 2872   6.009   6.087   4.854
  958SOL    HW1 2873   6.056   6.000   4.841
  958SOL    HW2 2874   5.913   6.070   4.878
  959SOL     OW 2875   5.926   1.231   4.400
  959SOL    HW1 2876   5.869   1.308   4.371
  959SOL    HW2 2877   5.953   1.244   4.495
  960SOL     OW 2878   6.082   5.008   3.126
  960SOL    HW1 2879   6.020   4.932   3.103
  960SOL    HW2 2880   6.152   4.976   3.190
  961SOL     OW 2881   5.360   5.921   1.715
  961SOL    HW1 2882   5.340   5.839   1.661
  961SOL    HW2 2883   5.403   5.894   1.801
  962SOL     OW 2884   0.113   5.234   2.922
  962SOL    HW1 2885   0.211   5.213   2.911
  962SOL    HW2 2886   0.062   5.194   2.846
  963SOL     OW 2887   2.154   2.864   2.402
  963SOL    HW1 2888   2.241   2.869   2.354
  963SOL    HW2 2889   2.090   2.809   2.347
  964SOL     OW 2890   6.174   0.778   3.336
  964SOL    HW1 2891   6.146   0.869   3.368
  964SOL    HW2 2892   6.266   0.758   3.369
  965SOL     OW 2893   1.506   0.530   3.950
  965SOL    HW1 2894   1.469   0.437   3.939
  965SOL    HW2 2895   1.447   0.582   4.011
  966SOL     OW 2896   1.348   4.770   2.090
  966SOL    HW1 2897   1.387   4.808   2.006
  966SOL    HW2 2898   1.304   4.843   2.142
  967SOL     OW 2899   1.398   1.033   0.365
  967SOL    HW1 2900   1.367   1.003   0.275
  967SOL    HW2 2901   1.354   1.119   0.389
  968SOL     OW 2902   3.609   0.375   4.866
  968SOL    HW1 2903   3.566   0.294   4.906
  968SOL    HW2 2904   3.580   0.386   4.771
  969SOL     OW 2905   2.887   6.033   4.712
  969SOL    HW1 2906   2.923   5.971   4.642
  969SOL    HW2 2907   2.872   6.124   4.672
  970SOL     OW 2908   5.879   0.979   3.498
  970SOL    HW1 2909   5.792   0.993   3.545
  970SOL    HW2 2910   5.876   0.892   3.449
  971SOL     OW 2911   1.783   2.529   0.883
  971SOL    HW1 2912   1.706   2.560   0.828
  971SOL    HW2 2913   1.771   2.432   0.906
  972SOL     OW 2914   1.640   4.302   0.930
  972SOL    HW1 2915   1.690   4.389   0.925
  972SOL    HW2 2916   1.608   4.276   0.839
  973SOL     OW 2917   4.709   6.216   1.805
  973SOL    HW1 2918   4.802   6.189   1.831
  973SOL    HW2 2919   4.644   6.150   1.842
  974SOL     OW 2920   2.935   2.783   2.551
  974SOL    HW1 2921   3.018   2.773   2.607
  974SOL    HW2 2922   2.886   2.696   2.550
  975SOL     OW 2923   3.228   0.478   0.933
  975SOL    HW1 2924   3.206   0.428   1.017
  975SOL    HW2 2925   3.263   0.569   0.957
  976SOL     OW 2926   3.158   3.834   2.583
  976SOL    HW1 2927   3.148   3.765   2.655
  976SOL    HW2 2928   3.078   3.831   2.523
  977SOL     OW 2929   0.920   1.642   1.409
  977SOL    HW1 2930   0.952   1.731   1.441
  977SOL    HW2 2931   0.968   1.569   1.457
  978SOL     OW 2932   6.135   1.919   3.554
  978SOL    HW1 2933   6.155   1.871   3.639
  978SOL    HW2 2934   6.140   2.018   3.570
  979SOL     OW 2935   5.495   2.558   2.478
  979SOL    HW1 2936   5.580   2.603   2.507
  979SOL    HW2 2937   5.422   2.580   2.542
  980SOL     OW 2938   2.315   3.510   3.577
  980SOL    HW1 2939   2.302   3.411   3.567
  980SOL    HW2 2940   2.371   3.544   3.502
  981SOL     OW 2941   0.147   3.092   0.894
  981SOL    HW1 2942   0.087   3.172   0.907
  981SOL    HW2 2943   0.091   3.012   0.875
  982SOL     OW 2944   1.659   5.014   1.245
  982SOL    HW1 2945   1.711   5.097   1.229
  982SOL    HW2 2946   1.619   5.016   1.336
  983SOL     OW 2947   2.354   0.088   3.188
  983SOL    HW1 2948   2.422   0.082   3.115
  983SOL    HW2 2949   2.318   0.181   3.192
  984SOL     OW 2950   5.265   4.881   4.267
  984SOL    HW1 2951   5.354   4.868   4.311
  984SOL    HW2 2952   5.211   4.945   4.320
  985SOL     OW 2953   4.709   5.011   3.939
  985SOL    HW1 2954   4.637   5.076   3.962
  985SOL    HW2 2955   4.792   5.061   3.915
  986SOL     OW 2956   4.081   5.890   0.130
  986SOL    HW1 2957   4.015   5.837   0.183
  986SOL    HW2 2958   4.154   5.829   0.097
  987SOL     OW 2959   6.270   5.122   2.724
  987SOL    HW1 2960   6.253   5.031   2.686
  987SOL    HW2 2961   6.183   5.168   2.741
  988SOL     OW 2962   3.388   2.129   4.258
  988SOL    HW1 2963   3.433   2.217   4.270
  988SOL    HW2 2964   3.333   2.131   4.175
  989SOL     OW 2965   5.334   2.191   3.352
  989SOL    HW1 2966   5.234   2.184   3.359
  989SOL    HW2 2967   5.375   2.110   3.395
  990SOL     OW 2968   5.568   0.496   2.884
  990SOL    HW1 2969   5.499   0.459   2.947
  990SOL    HW2 2970   5.608   0.421   2.831
  991SOL     OW 2971   2.728   0.765   3.382
  991SOL    HW1 2972   2.712   0.807   3.293
  991SOL    HW2 2973   2.735   0.666   3.371
  992SOL     OW 2974   1.314   2.458   3.584
  992SOL    HW1 2975   1.315   2.549   3.624
  992SOL    HW2 2976   1.227   2.413   3.605
  993SOL     OW 2977   5.966   5.072   4.585
  993SOL    HW1 2978   5.886   5.118   4.547
  993SOL    HW2 2979   6.020   5.032   4.511
  994SOL     OW 2980   1.285   0.603   4.178
  994SOL    HW1 2981   1.352   0.589   4.251
  994SOL    HW2 2982   1.269   0.701   4.167
  995SOL     OW 2983   3.934   5.876   1.353
  995SOL    HW1 2984   3.843   5.911   1.378
  995SOL    HW2 2985   4.004   5.925   1.405
  996SOL     OW 2986   0.725   2.170   2.419
  996SOL    HW1 2987   0.635   2.143   2.386
  996SOL    HW2 2988   0.792   2.099   2.397
  997SOL     OW 2989   4.000   3.658   0.699
  997SOL    HW1 2990   3.943   3.599   0.757
  997SOL    HW2 2991   4.047   3.725   0.755
  998SOL     OW 2992   4.899   5.787   0.788
  998SOL    HW1 2993   4.894   5.687   0.791
  998SOL    HW2 2994   4.809   5.826   0.806
  999SOL     OW 2995   3.411   3.418   3.013
  999SOL    HW1 2996   3.324   3.375   3.036
  999SOL    HW2 2997   3.461   3.360   2.949
 1000SOL     OW 2998   4.243   0.836   0.585
 1000SOL    HW1 2999   4.244   0.904   0.658
 1000SOL    HW2 3000   4.309   0.764   0.606
 1001SOL     OW 3001   6.169   3.527  12.278
 1001SOL    HW1 3002   6.136   3.444  12.324
 1001SOL    HW2 3003   6.259   3.550  12.313
 1002SOL     OW 3004   2.273   1.021  14.855
 1002SOL    HW1 3005   2.231   0.931  14.859
 1002SOL    HW2 3006   2.323   1.039  14.940
 1003SOL     OW 3007   2.838   0.671  14.276
 1003SOL    HW1 3008   2.873   0.727  14.351
 1003SOL    HW2 3009   2.740   0.690  14.263
 1004SOL     OW 3010   0.416   2.299  11.583
 1004SOL    HW1 3011   0.502   2.342  11.557
 1004SOL    HW2 3012   0.434   2.204  11.610
 1005SOL     OW 3013   5.942   0.075  14.595
 1005SOL    HW1 3014   5.869   0.024  14.641
 1005SOL    HW2 3015   6.026   0.068  14.648
 1006SOL     OW 3016   0.129   0.105  12.574
 1006SOL    HW1 3017   0.189   0.130  12.498
 1006SOL    HW2 3018   0.035   0.132  12.553
 1007SOL     OW 3019   0.782   1.750  12.430
 1007SOL    HW1 3020   0.684   1.759  12.450
 1007SOL    HW2 3021   0.811   1.822  12.368
 1008SOL     OW 3022   1.033   0.873  14.126
 1008SOL    HW1 3023   1.001   0.835  14.213
 1008SOL    HW2 3024   1.116   0.825  14.098
 1009SOL     OW 3025   5.023   2.201  11.667
 1009SOL    HW1 3026   4.968   2.227  11.747
 1009SOL    HW2 3027   5.117   2.183  11.695
 1010SOL     OW 3028   3.824   2.158  11.104
 1010SOL    HW1 3029   3.745   2.176  11.162
 1010SOL    HW2 3030   3.904   2.206  11.140
 1011SOL     OW 3031   0.997   0.313  14.434
 1011SOL    HW1 3032   1.048   0.236  14.473
 1011SOL    HW2 3033   0.899   0.297  14.446
 1012SOL     OW 3034   3.897   5.882  14.402
 1012SOL    HW1 3035   3.969   5.811  14.397
 1012SOL    HW2 3036   3.921   5.948  14.473
 1013SOL     OW 3037   0.927   2.113  11.026
 1013SOL    HW1 3038   0.968   2.025  11.002
 1013SOL    HW2 3039   0.926   2.172  10.945
 1014SOL     OW 3040   5.887   1.167  14.704
 1014SOL    HW1 3041   5.970   1.212  14.670
 1014SOL    HW2 3042   5.807   1.220  14.676
 1015SOL     OW 3043   4.044   5.793  15.137
 1015SOL    HW1 3044   4.026   5.785  15.235
 1015SOL    HW2 3045   4.057   5.702  15.098
 1016SOL     OW 3046   5.250   3.802  12.895
 1016SOL    HW1 3047   5.314   3.729  12.871
 1016SOL    HW2 3048   5.300   3.887  12.909
 1017SOL     OW 3049   0.624   2.071  15.528
 1017SOL    HW1 3050   0.621   1.974  15.551
 1017SOL    HW2 3051   0.710   2.092  15.481
 1018SOL     OW 3052   4.057   2.348  12.585
 1018SOL    HW1 3053   3.967   2.339  12.628
 1018SOL    HW2 3054   4.121   2.388  12.651
 1019SOL     OW 3055   3.011   3.501  14.766
 1019SOL    HW1 3056   3.011   3.502  14.666
 1019SOL    HW2 3057   3.019   3.407  14.799
 1020SOL     OW 3058   2.522   6.218  12.176
 1020SOL    HW1 3059   2.616   6.184  12.174
 1020SOL    HW2 3060   2.459   6.140  12.179
 1021SOL     OW 3061   5.213   4.552  14.822
 1021SOL    HW1 3062   5.151   4.602  14.882
 1021SOL    HW2 3063   5.203   4.454  14.838
 1022SOL     OW 3064   2.800   5.535  11.514
 1022SOL    HW1 3065   2.724   5.470  11.511
 1022SOL    HW2 3066   2.796   5.588  11.599
 1023SOL     OW 3067   3.888   1.179  12.760
 1023SOL    HW1 3068   3.819   1.228  12.706
 1023SOL    HW2 3069   3.842   1.116  12.822
 1024SOL     OW 3070   1.520   3.118  11.604
 1024SOL    HW1 3071   1.577   3.039  11.585
 1024SOL    HW2 3072   1.426   3.089  11.624
 1025SOL     OW 3073   2.176   5.924  12.353
 1025SOL    HW1 3074   2.123   5.851  12.397
 1025SOL    HW2 3075   2.132   6.012  12.370
 1026SOL     OW 3076   5.263   0.945  12.839
 1026SOL    HW1 3077   5.303   1.030  12.873
 1026SOL    HW2 3078   5.318   0.867  12.869
 1027SOL     OW 3079   0.896   0.484  15.516
 1027SOL    HW1 3080   0.804   0.456  15.545
 1027SOL    HW2 3081   0.934   0.548  15.583
 1028SOL     OW 3082   3.963   1.979  12.977
 1028SOL    HW1 3083   3.877   1.997  12.928
 1028SOL    HW2 3084   4.038   1.970  12.911
 1029SOL     OW 3085   1.391   3.531  13.198
 1029SOL    HW1 3086   1.320   3.571  13.257
 1029SOL    HW2 3087   1.461   3.488  13.255
 1030SOL     OW 3088   1.348   1.968  13.340
 1030SOL    HW1 3089   1.422   1.902  13.326
 1030SOL    HW2 3090   1.357   2.010  13.430
 1031SOL     OW 3091   2.880   4.613  14.698
 1031SOL    HW1 3092   2.904   4.548  14.771
 1031SOL    HW2 3093   2.781   4.627  14.698
 1032SOL     OW 3094   1.734   3.488  13.938
 1032SOL    HW1 3095   1.735   3.550  13.859
 1032SOL    HW2 3096   1.679   3.527  14.011
 1033SOL     OW 3097   2.603   1.662  14.977
 1033SOL    HW1 3098   2.621   1.652  15.075
 1033SOL    HW2 3099   2.639   1.582  14.929
 1034SOL     OW 3100   5.226   5.231  15.546
 1034SOL    HW1 3101   5.310   5.281  15.523
 1034SOL    HW2 3102   5.231   5.199  15.640
 1035SOL     OW 3103   1.167   0.636  14.899
 1035SOL    HW1 3104   1.259   0.675  14.909
 1035SOL    HW2 3105   1.100   0.711  14.899
 1036SOL     OW 3106   0.344   1.164  15.442
 1036SOL    HW1 3107   0.401   1.084  15.423
 1036SOL    HW2 3108   0.376   1.209  15.526
 1037SOL     OW 3109   5.420   4.624  14.652
 1037SOL    HW1 3110   5.378   4.630  14.562
 1037SOL    HW2 3111   5.349   4.602  14.720
 1038SOL     OW 3112   6.064   5.564  11.550
 1038SOL    HW1 3113   6.094   5.660  11.555
 1038SOL    HW2 3114   5.971   5.556  11.585
 1039SOL     OW 3115   1.053   3.954  11.486
 1039SOL    HW1 3116   0.976   4.010  11.457
 1039SOL    HW2 3117   1.091   3.906  11.407
 1040SOL     OW 3118   5.359   5.134  14.959
 1040SOL    HW1 3119   5.262   5.141  14.936
 1040SOL    HW2 3120   5.385   5.038  14.964
 1041SOL     OW 3121   2.466   1.045  12.555
 1041SOL    HW1 3122   2.387   1.035  12.615
 1041SOL    HW2 3123   2.506   0.955  12.537
 1042SOL     OW 3124   1.499   2.507  13.914
 1042SOL    HW1 3125   1.421   2.491  13.974
 1042SOL    HW2 3126   1.535   2.598  13.930
 1043SOL     OW 3127   2.498   0.678  15.664
 1043SOL    HW1 3128   2.572   0.745  15.662
 1043SOL    HW2 3129   2.410   0.726  15.663
 1044SOL     OW 3130   1.813   3.209  14.026
 1044SOL    HW1 3131   1.741   3.228  13.959
 1044SOL    HW2 3132   1.875   3.287  14.031
 1045SOL     OW 3133   3.003   6.037  12.797
 1045SOL    HW1 3134   3.081   5.999  12.847
 1045SOL    HW2 3135   2.918   6.002  12.837
 1046SOL     OW 3136   0.309   0.722  13.766
 1046SOL    HW1 3137   0.355   0.633  13.770
 1046SOL    HW2 3138   0.376   0.794  13.746
 1047SOL     OW 3139   1.931   4.915  11.899
 1047SOL    HW1 3140   1.917   5.014  11.905
 1047SOL    HW2 3141   1.850   4.868  11.933
 1048SOL     OW 3142   3.521   3.613  14.520
 1048SOL    HW1 3143   3.472   3.700  14.525
 1048SOL    HW2 3144   3.587   3.615  14.444
 1049SOL     OW 3145   1.943   1.620  14.597
 1049SOL    HW1 3146   2.038   1.603  14.623
 1049SOL    HW2 3147   1.917   1.557  14.524
 1050SOL     OW 3148   5.930   0.204  12.234
 1050SOL    HW1 3149   5.949   0.224  12.138
 1050SOL    HW2 3150   6.015   0.213  12.286
 1051SOL     OW 3151   3.672   1.740  13.380
 1051SOL    HW1 3152   3.769   1.743  13.357
 1051SOL    HW2 3153   3.661   1.741  13.479
 1052SOL     OW 3154   5.213   6.111  14.066
 1052SOL    HW1 3155   5.165   6.191  14.102
 1052SOL    HW2 3156   5.216   6.116  13.967
 1053SOL     OW 3157   0.456   0.476  15.465
 1053SOL    HW1 3158   0.426   0.559  15.513
 1053SOL    HW2 3159   0.427   0.395  15.516
 1054SOL     OW 3160   5.397   0.497  12.959
 1054SOL    HW1 3161   5.482   0.445  12.947
 1054SOL    HW2 3162   5.400   0.546  13.046
 1055SOL     OW 3163   0.986   5.640  12.328
 1055SOL    HW1 3164   0.929   5.601  12.256
 1055SOL    HW2 3165   1.043   5.713  12.290
 1056SOL     OW 3166   2.653   0.075  11.192
 1056SOL    HW1 3167   2.616   0.118  11.109
 1056SOL    HW2 3168   2.698   0.145  11.248
 1057SOL     OW 3169   0.150   0.564  15.695
 1057SOL    HW1 3170   0.141   0.663  15.685
 1057SOL    HW2 3171   0.072   0.519  15.652
 1058SOL     OW 3172   4.817   1.977  11.603
 1058SOL    HW1 3173   4.876   2.057  11.588
 1058SOL    HW2 3174   4.780   1.947  11.515
 1059SOL     OW 3175   5.682   0.481  15.709
 1059SOL    HW1 3176   5.687   0.400  15.651
 1059SOL    HW2 3177   5.588   0.516  15.709
 1060SOL     OW 3178   1.753   1.801  14.891
 1060SOL    HW1 3179   1.718   1.710  14.869
 1060SOL    HW2 3180   1.830   1.822  14.832
 1061SOL     OW 3181   6.103   0.380  14.120
 1061SOL    HW1 3182   6.184   0.411  14.170
 1061SOL    HW2 3183   6.021   0.412  14.166
 1062SOL     OW 3184   5.329   3.651  14.152
 1062SOL    HW1 3185   5.243   3.626  14.196
 1062SOL    HW2 3186   5.315   3.661  14.054
 1063SOL     OW 3187   2.200   5.964  11.118
 1063SOL    HW1 3188   2.234   6.024  11.190
 1063SOL    HW2 3189   2.144   5.892  11.158
 1064SOL     OW 3190   4.325   1.022  13.451
 1064SOL    HW1 3191   4.243   0.984  13.408
 1064SOL    HW2 3192   4.406   0.992  13.400
 1065SOL     OW 3193   2.698   6.047  13.395
 1065SOL    HW1 3194   2.709   6.116  13.467
 1065SOL    HW2 3195   2.747   5.964  13.421
 1066SOL     OW 3196   0.558   5.284  12.384
 1066SOL    HW1 3197   0.522   5.202  12.340
 1066SOL    HW2 3198   0.626   5.258  12.453
 1067SOL     OW 3199   1.368   1.285  11.641
 1067SOL    HW1 3200   1.440   1.313  11.705
 1067SOL    HW2 3201   1.279   1.308  11.680
 1068SOL     OW 3202   1.433   3.993  11.449
 1068SOL    HW1 3203   1.379   3.909  11.442
 1068SOL    HW2 3204   1.529   3.969  11.466
 1069SOL     OW 3205   2.191   2.125  13.272
 1069SOL    HW1 3206   2.092   2.127  13.263
 1069SOL    HW2 3207   2.233   2.173  13.194
 1070SOL     OW 3208   2.167   0.776  14.954
 1070SOL    HW1 3209   2.125   0.686  14.947
 1070SOL    HW2 3210   2.207   0.788  15.045
 1071SOL     OW 3211   3.909   2.494  11.386
 1071SOL    HW1 3212   3.985   2.558  11.400
 1071SOL    HW2 3213   3.830   2.524  11.440
 1072SOL     OW 3214   5.982   5.807  14.258
 1072SOL    HW1 3215   5.887   5.835  14.251
 1072SOL    HW2 3216   6.012   5.813  14.353
 1073SOL     OW 3217   4.113   0.333  14.470
 1073SOL    HW1 3218   4.123   0.291  14.380
 1073SOL    HW2 3219   4.204   0.349  14.509
 1074SOL     OW 3220   1.997   1.162  14.940
 1074SOL    HW1 3221   2.056   1.127  14.868
 1074SOL    HW2 3222   1.927   1.094  14.962
 1075SOL     OW 3223   1.974   3.164  12.172
 1075SOL    HW1 3224   2.034   3.171  12.250
 1075SOL    HW2 3225   2.028   3.159  12.088
 1076SOL     OW 3226   4.661   3.103  14.215
 1076SOL    HW1 3227   4.673   3.042  14.137
 1076SOL    HW2 3228   4.571   3.090  14.255
 1077SOL     OW 3229   2.018   0.226  15.571
 1077SOL    HW1 3230   2.090   0.159  15.553
 1077SOL    HW2 3231   1.939   0.180  15.610
 1078SOL     OW 3232   0.158   3.752  14.194
 1078SOL    HW1 3233   0.161   3.743  14.293
 1078SOL    HW2 3234   0.193   3.842  14.168
 1079SOL     OW 3235   3.559   1.813  14.298
 1079SOL    HW1 3236   3.465   1.828  14.266
 1079SOL    HW2 3237   3.580   1.715  14.294
 1080SOL     OW 3238   5.416   2.068  12.763
 1080SOL    HW1 3239   5.329   2.072  12.714
 1080SOL    HW2 3240   5.485   2.028  12.702
 1081SOL     OW 3241   5.677   3.613  11.552
 1081SOL    HW1 3242   5.755   3.554  11.531
 1081SOL    HW2 3243   5.696   3.706  11.520
 1082SOL     OW 3244   0.515   0.309  13.698
 1082SOL    HW1 3245   0.573   0.391  13.702
 1082SOL    HW2 3246   0.573   0.228  13.683
 1083SOL     OW 3247   4.329   1.582  15.303
 1083SOL    HW1 3248   4.391   1.658  15.325
 1083SOL    HW2 3249   4.246   1.619  15.261
 1084SOL     OW 3250   0.445   1.381  15.094
 1084SOL    HW1 3251   0.383   1.311  15.059
 1084SOL    HW2 3252   0.415   1.410  15.185
 1085SOL     OW 3253   6.023   1.198  14.352
 1085SOL    HW1 3254   6.070   1.246  14.278
 1085SOL    HW2 3255   5.930   1.233  14.360
 1086SOL     OW 3256   5.332   0.565  13.236
 1086SOL    HW1 3257   5.296   0.629  13.304
 1086SOL    HW2 3258   5.263   0.497  13.214
 1087SOL     OW 3259   3.269   1.619  15.934
 1087SOL    HW1 3260   3.277   1.589  16.029
 1087SOL    HW2 3261   3.271   1.719  15.931
 1088SOL     OW 3262   5.422   5.268  11.453
 1088SOL    HW1 3263   5.474   5.183  11.440
 1088SOL    HW2 3264   5.485   5.343  11.472
 1089SOL     OW 3265   5.553   0.879  13.639
 1089SOL    HW1 3266   5.586   0.901  13.548
 1089SOL    HW2 3267   5.606   0.802  13.675
 1090SOL     OW 3268   0.315   4.351  15.414
 1090SOL    HW1 3269   0.306   4.420  15.486
 1090SOL    HW2 3270   0.229   4.345  15.363
 1091SOL     OW 3271   5.626   1.465  12.242
 1091SOL    HW1 3272   5.580   1.540  12.288
 1091SOL    HW2 3273   5.675   1.499  12.162
 1092SOL     OW 3274   5.459   3.971  11.496
 1092SOL    HW1 3275   5.412   3.884  11.509
 1092SOL    HW2 3276   5.426   4.037  11.564
 1093SOL     OW 3277   0.604   4.190  11.219
 1093SOL    HW1 3278   0.636   4.277  11.181
 1093SOL    HW2 3279   0.566   4.134  11.146
 1094SOL     OW 3280   3.867   4.323  13.766
 1094SOL    HW1 3281   3.867   4.402  13.827
 1094SOL    HW2 3282   3.775   4.284  13.762
 1095SOL     OW 3283   2.657   3.172  11.782
 1095SOL    HW1 3284   2.596   3.237  11.737
 1095SOL    HW2 3285   2.615   3.081  11.780
 1096SOL     OW 3286   3.728   4.035  12.754
 1096SOL    HW1 3287   3.717   3.989  12.666
 1096SOL    HW2 3288   3.638   4.053  12.794
 1097SOL     OW 3289   3.849   5.062  11.761
 1097SOL    HW1 3290   3.812   4.992  11.823
 1097SOL    HW2 3291   3.845   5.028  11.667
 1098SOL     OW 3292   5.730   0.960  14.212
 1098SOL    HW1 3293   5.696   0.876  14.170
 1098SOL    HW2 3294   5.829   0.954  14.223
 1099SOL     OW 3295   4.495   1.971  11.566
 1099SOL    HW1 3296   4.579   1.990  11.617
 1099SOL    HW2 3297   4.424   2.037  11.592
 1100SOL     OW 3298   3.988   4.845  14.279
 1100SOL    HW1 3299   4.018   4.750  14.294
 1100SOL    HW2 3300   3.939   4.851  14.192
 1101SOL     OW 3301   0.279   6.273  15.090
 1101SOL    HW1 3302   0.303   6.184  15.130
 1101SOL    HW2 3303   0.257   6.337  15.163
 1102SOL     OW 3304   1.196   5.972  15.094
 1102SOL    HW1 3305   1.161   5.915  15.019
 1102SOL    HW2 3306   1.145   6.058  15.097
 1103SOL     OW 3307   4.329   6.000  12.223
 1103SOL    HW1 3308   4.373   5.913  12.248
 1103SOL    HW2 3309   4.399   6.065  12.193
 1104SOL     OW 3310   1.836   3.315  15.505
 1104SOL    HW1 3311   1.923   3.286  15.464
 1104SOL    HW2 3312   1.767   3.327  15.434
 1105SOL     OW 3313   3.246   2.697  15.138
 1105SOL    HW1 3314   3.270   2.733  15.048
 1105SOL    HW2 3315   3.261   2.767  15.207
 1106SOL     OW 3316   2.674   5.605  11.142
 1106SOL    HW1 3317   2.768   5.635  11.125
 1106SOL    HW2 3318   2.673   5.542  11.220
 1107SOL     OW 3319   4.721   1.638  14.829
 1107SOL    HW1 3320   4.659   1.717  14.825
 1107SOL    HW2 3321   4.670   1.557  14.858
 1108SOL     OW 3322   4.196   5.009  12.139
 1108SOL    HW1 3323   4.244   5.077  12.193
 1108SOL    HW2 3324   4.145   4.948  12.200
 1109SOL     OW 3325   1.923   0.677  15.863
 1109SOL    HW1 3326   1.965   0.619  15.793
 1109SOL    HW2 3327   1.864   0.745  15.818
 1110SOL     OW 3328   4.565   2.101  12.714
 1110SOL    HW1 3329   4.574   2.025  12.779
 1110SOL    HW2 3330   4.517   2.069  12.632
 1111SOL     OW 3331   5.478   0.460  11.814
 1111SOL    HW1 3332   5.538   0.385  11.841
 1111SOL    HW2 3333   5.457   0.516  11.894
 1112SOL     OW 3334   6.079   1.496  12.494
 1112SOL    HW1 3335   6.087   1.399  12.470
 1112SOL    HW2 3336   6.142   1.549  12.438
 1113SOL     OW 3337   1.513   1.532  11.834
 1113SOL    HW1 3338   1.600   1.532  11.785
 1113SOL    HW2 3339   1.440   1.566  11.774
 1114SOL     OW 3340   6.036   3.733  12.616
 1114SOL    HW1 3341   6.131   3.704  12.618
 1114SOL    HW2 3342   6.028   3.827  12.649
 1115SOL     OW 3343   4.417   1.066  15.706
 1115SOL    HW1 3344   4.450   1.107  15.790
 1115SOL    HW2 3345   4.369   0.981  15.727
 1116SOL     OW 3346   0.799   0.704  11.153
 1116SOL    HW1 3347   0.811   0.781  11.091
 1116SOL    HW2 3348   0.888   0.672  11.184
 1117SOL     OW 3349   4.845   0.565  14.314
 1117SOL    HW1 3350   4.901   0.643  14.287
 1117SOL    HW2 3351   4.839   0.500  14.238
 1118SOL     OW 3352   2.012   2.678  11.092
 1118SOL    HW1 3353   1.974   2.752  11.037
 1118SOL    HW2 3354   2.005   2.592  11.041
 1119SOL     OW 3355   3.090   5.232  12.821
 1119SOL    HW1 3356   3.177   5.200  12.857
 1119SOL    HW2 3357   3.016   5.207  12.883
 1120SOL     OW 3358   2.543   2.846  15.635
 1120SOL    HW1 3359   2.477   2.784  15.678
 1120SOL    HW2 3360   2.636   2.819  15.661
 1121SOL     OW 3361   5.582   2.786  14.349
 1121SOL    HW1 3362   5.578   2.687  14.361
 1121SOL    HW2 3363   5.675   2.818  14.362
 1122SOL     OW 3364   5.590   0.264  14.949
 1122SOL    HW1 3365   5.524   0.209  14.897
 1122SOL    HW2 3366   5.680   0.256  14.907
 1123SOL     OW 3367   4.690   5.757  15.409
 1123SOL    HW1 3368   4.653   5.728  15.497
 1123SOL    HW2 3369   4.732   5.679  15.363
 1124SOL     OW 3370   2.962   3.455  14.493
 1124SOL    HW1 3371   2.865   3.437  14.511
 1124SOL    HW2 3372   2.969   3.509  14.409
 1125SOL     OW 3373   4.836   2.731  12.792
 1125SOL    HW1 3374   4.783   2.731  12.877
 1125SOL    HW2 3375   4.841   2.639  12.755
 1126SOL     OW 3376   4.494   3.752  12.363
 1126SOL    HW1 3377   4.516   3.663  12.322
 1126SOL    HW2 3378   4.551   3.823  12.322
 1127SOL     OW 3379   0.080   5.334  12.447
 1127SOL    HW1 3380   0.135   5.352  12.365
 1127SOL    HW2 3381   0.141   5.311  12.523
 1128SOL     OW 3382   5.036   4.351  13.270
 1128SOL    HW1 3383   4.942   4.319  13.281
 1128SOL    HW2 3384   5.097   4.273  13.255
 1129SOL     OW 3385   6.197   4.287  12.917
 1129SOL    HW1 3386   6.147   4.372  12.927
 1129SOL    HW2 3387   6.132   4.210  12.912
 1130SOL     OW 3388   1.841   0.684  13.234
 1130SOL    HW1 3389   1.844   0.745  13.155
 1130SOL    HW2 3390   1.932   0.644  13.249
 1131SOL     OW 3391   4.456   4.078  15.423
 1131SOL    HW1 3392   4.504   4.103  15.339
 1131SOL    HW2 3393   4.418   3.986  15.414
 1132SOL     OW 3394   1.468   2.256  15.609
 1132SOL    HW1 3395   1.488   2.287  15.516
 1132SOL    HW2 3396   1.531   2.182  15.633
 1133SOL     OW 3397   0.257   5.447  11.498
 1133SOL    HW1 3398   0.168   5.403  11.502
 1133SOL    HW2 3399   0.259   5.513  11.423
 1134SOL     OW 3400   1.140   3.645  12.846
 1134SOL    HW1 3401   1.238   3.658  12.864
 1134SOL    HW2 3402   1.112   3.554  12.877
 1135SOL     OW 3403   4.759   6.242  14.776
 1135SOL    HW1 3404   4.833   6.207  14.833
 1135SOL    HW2 3405   4.710   6.314  14.824
 1136SOL     OW 3406   1.136   4.785  14.824
 1136SOL    HW1 3407   1.093   4.870  14.854
 1136SOL    HW2 3408   1.222   4.805  14.778
 1137SOL     OW 3409   6.265   0.822  14.895
 1137SOL    HW1 3410   6.234   0.862  14.981
 1137SOL    HW2 3411   6.198   0.842  14.824
 1138SOL     OW 3412   4.911   5.180  14.618
 1138SOL    HW1 3413   4.923   5.125  14.536
 1138SOL    HW2 3414   4.848   5.134  14.681
 1139SOL     OW 3415   4.452   3.254  11.983
 1139SOL    HW1 3416   4.432   3.174  12.040
 1139SOL    HW2 3417   4.519   3.229  11.914
 1140SOL     OW 3418   2.043   4.285  14.910
 1140SOL    HW1 3419   1.974   4.316  14.844
 1140SOL    HW2 3420   2.050   4.351  14.985
 1141SOL     OW 3421   6.011   4.253  12.674
 1141SOL    HW1 3422   6.105   4.268  12.646
 1141SOL    HW2 3423   6.007   4.177  12.738
 1142SOL     OW 3424   4.723   0.883  14.109
 1142SOL    HW1 3425   4.666   0.817  14.157
 1142SOL    HW2 3426   4.669   0.963  14.085
 1143SOL     OW 3427   1.628   2.098  11.357
 1143SOL    HW1 3428   1.563   2.108  11.281
 1143SOL    HW2 3429   1.718   2.131  11.329
 1144SOL     OW 3430   3.783   0.890  14.317
 1144SOL    HW1 3431   3.880   0.906  14.332
 1144SOL    HW2 3432   3.768   0.793  14.297
 1145SOL     OW 3433   1.200   2.178  12.745
 1145SOL    HW1 3434   1.113   2.138  12.716
 1145SOL    HW2 3435   1.232   2.241  12.674
 1146SOL     OW 3436   4.205   4.921  11.569
 1146SOL    HW1 3437   4.304   4.935  11.559
 1146SOL    HW2 3438   4.177   4.947  11.661
 1147SOL     OW 3439   1.341   4.492  13.660
 1147SOL    HW1 3440   1.331   4.584  13.623
 1147SOL    HW2 3441   1.280   4.429  13.613
 1148SOL     OW 3442   3.963   4.763  11.523
 1148SOL    HW1 3443   3.969   4.678  11.471
 1148SOL    HW2 3444   4.050   4.812  11.518
 1149SOL     OW 3445   5.846   1.560  13.760
 1149SOL    HW1 3446   5.848   1.462  13.743
 1149SOL    HW2 3447   5.823   1.608  13.675
 1150SOL     OW 3448   3.502   5.538  12.617
 1150SOL    HW1 3449   3.553   5.602  12.559
 1150SOL    HW2 3450   3.411   5.523  12.578
 1151SOL     OW 3451   2.785   4.488  12.495
 1151SOL    HW1 3452   2.718   4.549  12.539
 1151SOL    HW2 3453   2.867   4.482  12.552
 1152SOL     OW 3454   5.013   2.324  15.495
 1152SOL    HW1 3455   5.047   2.240  15.452
 1152SOL    HW2 3456   4.980   2.304  15.587
 1153SOL     OW 3457   1.658   2.798  12.356
 1153SOL    HW1 3458   1.665   2.707  12.316
 1153SOL    HW2 3459   1.678   2.867  12.287
 1154SOL     OW 3460   2.206   4.559  14.563
 1154SOL    HW1 3461   2.262   4.640  14.544
 1154SOL    HW2 3462   2.186   4.555  14.661
 1155SOL     OW 3463   2.492   1.412  15.320
 1155SOL    HW1 3464   2.478   1.485  15.387
 1155SOL    HW2 3465   2.579   1.367  15.337
 1156SOL     OW 3466   0.620   0.226  12.476
 1156SOL    HW1 3467   0.617   0.240  12.377
 1156SOL    HW2 3468   0.623   0.129  12.496
 1157SOL     OW 3469   3.484   4.715  14.627
 1157SOL    HW1 3470   3.429   4.694  14.546
 1157SOL    HW2 3471   3.469   4.644  14.696
 1158SOL     OW 3472   3.082   2.526  11.414
 1158SOL    HW1 3473   3.075   2.549  11.511
 1158SOL    HW2 3474   3.015   2.578  11.362
 1159SOL     OW 3475   2.735   3.037  14.546
 1159SOL    HW1 3476   2.775   3.045  14.637
 1159SOL    HW2 3477   2.665   2.966  14.546
 1160SOL     OW 3478   4.398   6.104  11.563
 1160SOL    HW1 3479   4.395   6.087  11.661
 1160SOL    HW2 3480   4.334   6.042  11.516
 1161SOL     OW 3481   2.045   6.150  12.459
 1161SOL    HW1 3482   1.985   6.230  12.453
 1161SOL    HW2 3483   2.103   6.159  12.541
 1162SOL     OW 3484   1.605   5.226  15.868
 1162SOL    HW1 3485   1.578   5.234  15.772
 1162SOL    HW2 3486   1.597   5.316  15.913
 1163SOL     OW 3487   4.416   1.866  15.253
 1163SOL    HW1 3488   4.428   1.917  15.168
 1163SOL    HW2 3489   4.365   1.921  15.319
 1164SOL     OW 3490   1.821   5.146  13.856
 1164SOL    HW1 3491   1.820   5.088  13.937
 1164SOL    HW2 3492   1.792   5.092  13.777
 1165SOL     OW 3493   5.655   3.968  14.407
 1165SOL    HW1 3494   5.755   3.976  14.416
 1165SOL    HW2 3495   5.613   4.056  14.425
 1166SOL     OW 3496   5.303   5.430  12.512
 1166SOL    HW1 3497   5.387   5.478  12.484
 1166SOL    HW2 3498   5.327   5.352  12.570
 1167SOL     OW 3499   5.612   4.994  14.003
 1167SOL    HW1 3500   5.580   4.899  14.001
 1167SOL    HW2 3501   5.556   5.049  13.942
 1168SOL     OW 3502   2.887   5.126  13.782
 1168SOL    HW1 3503   2.796   5.114  13.820
 1168SOL    HW2 3504   2.945   5.175  13.847
 1169SOL     OW 3505   3.451   0.878  14.605
 1169SOL    HW1 3506   3.362   0.917  14.578
 1169SOL    HW2 3507   3.517   0.892  14.531
 1170SOL     OW 3508   5.630   0.102  11.267
 1170SOL    HW1 3509   5.692   0.160  11.319
 1170SOL    HW2 3510   5.680   0.053  11.197
 1171SOL     OW 3511   3.513   6.207  14.024
 1171SOL    HW1 3512   3.542   6.266  13.948
 1171SOL    HW2 3513   3.475   6.122  13.987
 1172SOL     OW 3514   3.118   3.903  11.870
 1172SOL    HW1 3515   3.055   3.937  11.800
 1172SOL    HW2 3516   3.163   3.981  11.914
 1173SOL     OW 3517   3.656   0.530  13.536
 1173SOL    HW1 3518   3.585   0.550  13.604
 1173SOL    HW2 3519   3.621   0.550  13.444
 1174SOL     OW 3520   0.193   1.996  15.181
 1174SOL    HW1 3521   0.199   1.925  15.110
 1174SOL    HW2 3522   0.234   2.081  15.147
 1175SOL     OW 3523   5.964   1.365  13.273
 1175SOL    HW1 3524   5.982   1.271  13.244
 1175SOL    HW2 3525   5.871   1.391  13.247
 1176SOL     OW 3526   5.082   3.358  11.825
 1176SOL    HW1 3527   5.145   3.420  11.873
 1176SOL    HW2 3528   5.009   3.411  11.783
 1177SOL     OW 3529   5.093   5.579  11.488
 1177SOL    HW1 3530   5.091   5.630  11.574
 1177SOL    HW2 3531   5.000   5.554  11.461
 1178SOL     OW 3532   6.278   5.929  15.583
 1178SOL    HW1 3533   6.266   5.969  15.675
 1178SOL    HW2 3534   6.198   5.873  15.562
 1179SOL     OW 3535   5.369   5.379  15.149
 1179SOL    HW1 3536   5.390   5.381  15.052
 1179SOL    HW2 3537   5.330   5.289  15.172
 1180SOL     OW 3538   6.177   4.847  15.232
 1180SOL    HW1 3539   6.091   4.796  15.237
 1180SOL    HW2 3540   6.213   4.842  15.138
 1181SOL     OW 3541   1.413   1.456  12.817
 1181SOL    HW1 3542   1.331   1.422  12.771
 1181SOL    HW2 3543   1.398   1.551  12.846
 1182SOL     OW 3544   2.704   3.429  12.542
 1182SOL    HW1 3545   2.697   3.511  12.484
 1182SOL    HW2 3546   2.800   3.404  12.551
 1183SOL     OW 3547   1.364   0.769  12.303
 1183SOL    HW1 3548   1.442   0.787  12.243
 1183SOL    HW2 3549   1.295   0.839  12.290
 1184SOL     OW 3550   2.557   5.313  11.465
 1184SOL    HW1 3551   2.556   5.261  11.551
 1184SOL    HW2 3552   2.495   5.270  11.399
 1185SOL     OW 3553   2.375   5.884  15.593
 1185SOL    HW1 3554   2.367   5.846  15.686
 1185SOL    HW2 3555   2.465   5.859  15.555
 1186SOL     OW 3556   1.747   4.670  13.377
 1186SOL    HW1 3557   1.699   4.603  13.321
 1186SOL    HW2 3558   1.842   4.678  13.347
 1187SOL     OW 3559   5.211   1.698  14.314
 1187SOL    HW1 3560   5.132   1.664  14.366
 1187SOL    HW2 3561   5.280   1.733  14.378
 1188SOL     OW 3562   0.210   4.992  12.631
 1188SOL    HW1 3563   0.113   4.970  12.632
 1188SOL    HW2 3564   0.263   4.913  12.662
 1189SOL     OW 3565   4.035   1.714  14.209
 1189SOL    HW1 3566   4.058   1.695  14.305
 1189SOL    HW2 3567   4.032   1.628  14.158
 1190SOL     OW 3568   6.020   2.571  13.093
 1190SOL    HW1 3569   5.971   2.656  13.075
 1190SOL    HW2 3570   5.968   2.494  13.058
 1191SOL     OW 3571   5.911   5.527  11.170
 1191SOL    HW1 3572   5.955   5.591  11.106
 1191SOL    HW2 3573   5.813   5.544  11.171
 1192SOL     OW 3574   0.767   4.540  15.969
 1192SOL    HW1 3575   0.730   4.486  15.894
 1192SOL    HW2 3576   0.867   4.529  15.972
 1193SOL     OW 3577   3.214   2.423  12.316
 1193SOL    HW1 3578   3.259   2.512  12.318
 1193SOL    HW2 3579   3.283   2.352  12.300
 1194SOL     OW 3580   2.737   0.266  11.371
 1194SOL    HW1 3581   2.719   0.363  11.392
 1194SOL    HW2 3582   2.770   0.220  11.453
 1195SOL     OW 3583   3.248   0.111  11.823
 1195SOL    HW1 3584   3.259   0.019  11.786
 1195SOL    HW2 3585   3.335   0.143  11.860
 1196SOL     OW 3586   2.459   1.054  15.086
 1196SOL    HW1 3587   2.414   1.139  15.114
 1196SOL    HW2 3588   2.557   1.071  15.076
 1197SOL     OW 3589   1.868   0.084  12.885
 1197SOL    HW1 3590   1.814   0.000  12.897
 1197SOL    HW2 3591   1.814   0.163  12.915
 1198SOL     OW 3592   4.060   3.358  11.176
 1198SOL    HW1 3593   4.046   3.429  11.245
 1198SOL    HW2 3594   4.031   3.392  11.087
 1199SOL     OW 3595   0.971   1.321  13.398
 1199SOL    HW1 3596   0.888   1.347  13.449
 1199SOL    HW2 3597   1.000   1.230  13.425
 1200SOL     OW 3598   2.466   2.345  11.813
 1200SOL    HW1 3599   2.443   2.443  11.810
 1200SOL    HW2 3600   2.533   2.329  11.886
 1201SOL     OW 3601   5.163   3.206  13.424
 1201SOL    HW1 3602   5.109   3.277  13.469
 1201SOL    HW2 3603   5.138   3.117  13.462
 1202SOL     OW 3604   3.550   3.545  12.285
 1202SOL    HW1 3605   3.604   3.463  12.303
 1202SOL    HW2 3606   3.496   3.532  12.202
 1203SOL     OW 3607   4.497   4.795  15.461
 1203SOL    HW1 3608   4.447   4.772  15.544
 1203SOL    HW2 3609   4.528   4.890  15.466
 1204SOL     OW 3610   4.462   2.055  12.444
 1204SOL    HW1 3611   4.404   2.038  12.365
 1204SOL    HW2 3612   4.542   2.109  12.415
 1205SOL     OW 3613   0.799   0.215  13.693
 1205SOL    HW1 3614   0.838   0.302  13.723
 1205SOL    HW2 3615   0.857   0.140  13.725
 1206SOL     OW 3616   1.937   2.344  15.129
 1206SOL    HW1 3617   2.012   2.300  15.178
 1206SOL    HW2 3618   1.974   2.397  15.052
 1207SOL     OW 3619   5.653   1.306  12.467
 1207SOL    HW1 3620   5.636   1.353  12.380
 1207SOL    HW2 3621   5.742   1.262  12.465
 1208SOL     OW 3622   4.254   5.856  14.386
 1208SOL    HW1 3623   4.346   5.816  14.386
 1208SOL    HW2 3624   4.243   5.915  14.466
 1209SOL     OW 3625   5.526   1.328  12.986
 1209SOL    HW1 3626   5.532   1.300  12.890
 1209SOL    HW2 3627   5.538   1.427  12.993
 1210SOL     OW 3628   4.326   6.116  13.385
 1210SOL    HW1 3629   4.338   6.202  13.435
 1210SOL    HW2 3630   4.276   6.051  13.442
 1211SOL     OW 3631   5.580   3.563  14.225
 1211SOL    HW1 3632   5.643   3.617  14.170
 1211SOL    HW2 3633   5.486   3.590  14.206
 1212SOL     OW 3634   0.874   0.658  15.841
 1212SOL    HW1 3635   0.826   0.743  15.862
 1212SOL    HW2 3636   0.910   0.617  15.925
 1213SOL     OW 3637   5.005   4.108  12.614
 1213SOL    HW1 3638   4.952   4.121  12.530
 1213SOL    HW2 3639   4.948   4.130  12.693
 1214SOL     OW 3640   5.823   2.366  14.362
 1214SOL    HW1 3641   5.843   2.269  14.348
 1214SOL    HW2 3642   5.753   2.376  14.433
 1215SOL     OW 3643   2.285   4.285  11.087
 1215SOL    HW1 3644   2.240   4.197  11.072
 1215SOL    HW2 3645   2.376   4.269  11.126
 1216SOL     OW 3646   6.174   0.542  13.165
 1216SOL    HW1 3647   6.191   0.639  13.151
 1216SOL    HW2 3648   6.241   0.504  13.229
 1217SOL     OW 3649   3.869   0.350  12.502
 1217SOL    HW1 3650   3.816   0.432  12.480
 1217SOL    HW2 3651   3.901   0.355  12.596
 1218SOL     OW 3652   5.481   2.872  12.187
 1218SOL    HW1 3653   5.386   2.859  12.159
 1218SOL    HW2 3654   5.507   2.968  12.172
 1219SOL     OW 3655   2.813   0.202  12.840
 1219SOL    HW1 3656   2.805   0.115  12.889
 1219SOL    HW2 3657   2.733   0.259  12.860
 1220SOL     OW 3658   3.902   4.658  11.176
 1220SOL    HW1 3659   3.849   4.576  11.155
 1220SOL    HW2 3660   3.842   4.726  11.218
 1221SOL     OW 3661   2.725   0.097  15.045
 1221SOL    HW1 3662   2.630   0.125  15.055
 1221SOL    HW2 3663   2.732  -0.003  15.056
 1222SOL     OW 3664   3.323   2.809  14.900
 1222SOL    HW1 3665   3.389   2.750  14.854
 1222SOL    HW2 3666   3.339   2.904  14.873
 1223SOL     OW 3667   5.464   5.689  11.423
 1223SOL    HW1 3668   5.527   5.748  11.373
 1223SOL    HW2 3669   5.370   5.708  11.393
 1224SOL     OW 3670   5.078   2.101  15.344
 1224SOL    HW1 3671   5.068   2.002  15.332
 1224SOL    HW2 3672   5.125   2.139  15.265
 1225SOL     OW 3673   3.883   3.637  15.330
 1225SOL    HW1 3674   3.858   3.646  15.234
 1225SOL    HW2 3675   3.937   3.553  15.343
 1226SOL     OW 3676   1.478   1.016  15.116
 1226SOL    HW1 3677   1.467   0.959  15.198
 1226SOL    HW2 3678   1.425   1.100  15.127
 1227SOL     OW 3679   0.863   3.486  13.045
 1227SOL    HW1 3680   0.885   3.519  13.137
 1227SOL    HW2 3681   0.840   3.389  13.049
 1228SOL     OW 3682   3.198   2.116  11.882
 1228SOL    HW1 3683   3.188   2.143  11.787
 1228SOL    HW2 3684   3.295   2.112  11.906
 1229SOL     OW 3685   5.299   0.190  13.496
 1229SOL    HW1 3686   5.370   0.189  13.426
 1229SOL    HW2 3687   5.328   0.135  13.574
 1230SOL     OW 3688   3.509   0.465  15.064
 1230SOL    HW1 3689   3.438   0.529  15.094
 1230SOL    HW2 3690   3.524   0.476  14.966
 1231SOL     OW 3691   0.801   5.528  12.151
 1231SOL    HW1 3692   0.717   5.569  12.186
 1231SOL    HW2 3693   0.781   5.440  12.108
 1232SOL     OW 3694   4.442   0.583  12.407
 1232SOL    HW1 3695   4.449   0.556  12.503
 1232SOL    HW2 3696   4.501   0.662  12.390
 1233SOL     OW 3697   4.876   1.255  11.213
 1233SOL    HW1 3698   4.879   1.183  11.144
 1233SOL    HW2 3699   4.933   1.229  11.291
 1234SOL     OW 3700   4.639   2.281  11.537
 1234SOL    HW1 3701   4.626   2.253  11.441
 1234SOL    HW2 3702   4.718   2.343  11.542
 1235SOL     OW 3703   1.133   5.240  11.423
 1235SOL    HW1 3704   1.161   5.276  11.512
 1235SOL    HW2 3705   1.052   5.290  11.391
 1236SOL     OW 3706   4.420   6.246  11.182
 1236SOL    HW1 3707   4.504   6.209  11.221
 1236SOL    HW2 3708   4.348   6.245  11.252
 1237SOL     OW 3709   4.072   5.090  13.587
 1237SOL    HW1 3710   4.020   5.094  13.502
 1237SOL    HW2 3711   4.090   5.183  13.619
 1238SOL     OW 3712   0.801   0.982  14.900
 1238SOL    HW1 3713   0.744   1.021  14.973
 1238SOL    HW2 3714   0.745   0.970  14.817
 1239SOL     OW 3715   5.273   3.132  15.555
 1239SOL    HW1 3716   5.357   3.132  15.609
 1239SOL    HW2 3717   5.215   3.208  15.584
 1240SOL     OW 3718   2.794   3.972  12.558
 1240SOL    HW1 3719   2.832   3.961  12.466
 1240SOL    HW2 3720   2.701   3.937  12.559
 1241SOL     OW 3721   0.168   4.248  12.578
 1241SOL    HW1 3722   0.221   4.202  12.649
 1241SOL    HW2 3723   0.225   4.264  12.498
 1242SOL     OW 3724   2.656   5.707  15.655
 1242SOL    HW1 3725   2.752   5.703  15.625
 1242SOL    HW2 3726   2.623   5.614  15.672
 1243SOL     OW 3727   1.093   0.069  14.539
 1243SOL    HW1 3728   1.182   0.033  14.566
 1243SOL    HW2 3729   1.029  -0.007  14.526
 1244SOL     OW 3730   2.236   6.066  15.103
 1244SOL    HW1 3731   2.199   6.069  15.010
 1244SOL    HW2 3732   2.164   6.040  15.167
 1245SOL     OW 3733   1.090   4.066  13.153
 1245SOL    HW1 3734   1.123   3.986  13.104
 1245SOL    HW2 3735   0.992   4.056  13.171
 1246SOL     OW 3736   3.452   1.734  13.206
 1246SOL    HW1 3737   3.487   1.778  13.123
 1246SOL    HW2 3738   3.521   1.736  13.278
 1247SOL     OW 3739   3.646   6.033  13.078
 1247SOL    HW1 3740   3.565   6.007  13.026
 1247SOL    HW2 3741   3.727   5.989  13.040
 1248SOL     OW 3742   5.191   2.249  14.677
 1248SOL    HW1 3743   5.091   2.250  14.675
 1248SOL    HW2 3744   5.225   2.210  14.591
 1249SOL     OW 3745   4.589   1.907  14.816
 1249SOL    HW1 3746   4.495   1.940  14.828
 1249SOL    HW2 3747   4.645   1.940  14.892
 1250SOL     OW 3748   0.561   1.166  13.981
 1250SOL    HW1 3749   0.629   1.214  14.037
 1250SOL    HW2 3750   0.480   1.147  14.037
 1251SOL     OW 3751   5.424   5.042  15.782
 1251SOL    HW1 3752   5.362   4.995  15.845
 1251SOL    HW2 3753   5.496   4.979  15.753
 1252SOL     OW 3754   1.554   2.275  15.334
 1252SOL    HW1 3755   1.509   2.198  15.288
 1252SOL    HW2 3756   1.638   2.299  15.285
 1253SOL     OW 3757   2.554   3.654  11.385
 1253SOL    HW1 3758   2.586   3.672  11.292
 1253SOL    HW2 3759   2.572   3.558  11.408
 1254SOL     OW 3760   5.048   2.194  12.391
 1254SOL    HW1 3761   4.974   2.185  12.457
 1254SOL    HW2 3762   5.044   2.118  12.326
 1255SOL     OW 3763   3.548   2.139  14.369
 1255SOL    HW1 3764   3.565   2.045  14.398
 1255SOL    HW2 3765   3.599   2.158  14.285
 1256SOL     OW 3766   1.866   0.666  11.752
 1256SOL    HW1 3767   1.803   0.725  11.703
 1256SOL    HW2 3768   1.904   0.598  11.688
 1257SOL     OW 3769   1.520   6.074  12.927
 1257SOL    HW1 3770   1.557   6.037  13.012
 1257SOL    HW2 3771   1.434   6.122  12.945
 1258SOL     OW 3772   5.463   0.564  12.108
 1258SOL    HW1 3773   5.436   0.548  12.204
 1258SOL    HW2 3774   5.531   0.636  12.104
 1259SOL     OW 3775   3.354   4.834  11.156
 1259SOL    HW1 3776   3.295   4.764  11.195
 1259SOL    HW2 3777   3.375   4.811  11.061
 1260SOL     OW 3778   5.042   6.210  11.682
 1260SOL    HW1 3779   5.140   6.225  11.697
 1260SOL    HW2 3780   5.000   6.294  11.649
 1261SOL     OW 3781   1.628   3.716  11.440
 1261SOL    HW1 3782   1.696   3.700  11.368
 1261SOL    HW2 3783   1.546   3.662  11.422
 1262SOL     OW 3784   1.781   5.778  12.982
 1262SOL    HW1 3785   1.779   5.817  12.890
 1262SOL    HW2 3786   1.768   5.679  12.976
 1263SOL     OW 3787   2.949   0.418  14.235
 1263SOL    HW1 3788   2.907   0.507  14.251
 1263SOL    HW2 3789   3.027   0.428  14.174
 1264SOL     OW 3790   2.909   0.701  12.985
 1264SOL    HW1 3791   2.975   0.755  12.934
 1264SOL    HW2 3792   2.957   0.639  13.048
 1265SOL     OW 3793   2.604   5.893  14.690
 1265SOL    HW1 3794   2.568   5.985  14.707
 1265SOL    HW2 3795   2.703   5.897  14.678
 1266SOL     OW 3796   2.533   2.408  13.752
 1266SOL    HW1 3797   2.464   2.337  13.764
 1266SOL    HW2 3798   2.621   2.365  13.731
 1267SOL     OW 3799   2.797   2.843  13.521
 1267SOL    HW1 3800   2.884   2.860  13.567
 1267SOL    HW2 3801   2.721   2.870  13.581
 1268SOL     OW 3802   5.509   0.995  14.470
 1268SOL    HW1 3803   5.519   1.008  14.569
 1268SOL    HW2 3804   5.599   0.976  14.430
 1269SOL     OW 3805   6.080   0.340  12.996
 1269SOL    HW1 3806   6.166   0.318  12.950
 1269SOL    HW2 3807   6.095   0.416  13.060
 1270SOL     OW 3808   1.841   3.164  12.542
 1270SOL    HW1 3809   1.786   3.197  12.620
 1270SOL    HW2 3810   1.842   3.064  12.542
 1271SOL     OW 3811   0.168   6.090  13.065
 1271SOL    HW1 3812   0.255   6.115  13.021
 1271SOL    HW2 3813   0.092   6.131  13.014
 1272SOL     OW 3814   0.374   5.835  13.615
 1272SOL    HW1 3815   0.371   5.920  13.562
 1272SOL    HW2 3816   0.307   5.770  13.579
 1273SOL     OW 3817   4.364   5.084  15.179
 1273SOL    HW1 3818   4.392   4.989  15.195
 1273SOL    HW2 3819   4.304   5.114  15.253
 1274SOL     OW 3820   0.813   5.488  15.651
 1274SOL    HW1 3821   0.871   5.407  15.664
 1274SOL    HW2 3822   0.860   5.568  15.688
 1275SOL     OW 3823   1.413   0.369  12.665
 1275SOL    HW1 3824   1.336   0.404  12.718
 1275SOL    HW2 3825   1.427   0.429  12.585
 1276SOL     OW 3826   4.619   3.691  13.082
 1276SOL    HW1 3827   4.691   3.662  13.145
 1276SOL    HW2 3828   4.621   3.633  13.000
 1277SOL     OW 3829   2.852   0.248  14.643
 1277SOL    HW1 3830   2.800   0.231  14.559
 1277SOL    HW2 3831   2.949   0.239  14.624
 1278SOL     OW 3832   1.605   3.407  12.613
 1278SOL    HW1 3833   1.644   3.498  12.622
 1278SOL    HW2 3834   1.592   3.386  12.516
 1279SOL     OW 3835   0.536   5.244  15.981
 1279SOL    HW1 3836   0.519   5.328  15.929
 1279SOL    HW2 3837   0.594   5.183  15.927
 1280SOL     OW 3838   0.050   3.086  12.772
 1280SOL    HW1 3839   0.028   2.990  12.755
 1280SOL    HW2 3840   0.149   3.097  12.781
 1281SOL     OW 3841   1.160   0.995  13.676
 1281SOL    HW1 3842   1.244   0.942  13.695
 1281SOL    HW2 3843   1.109   1.006  13.761
 1282SOL     OW 3844   4.260   4.408  12.307
 1282SOL    HW1 3845   4.316   4.328  12.287
 1282SOL    HW2 3846   4.192   4.385  12.375
 1283SOL     OW 3847   3.579   2.735  14.675
 1283SOL    HW1 3848   3.530   2.647  14.679
 1283SOL    HW2 3849   3.540   2.791  14.603
 1284SOL     OW 3850   2.042   3.098  11.882
 1284SOL    HW1 3851   2.063   3.162  11.809
 1284SOL    HW2 3852   1.965   3.040  11.855
 1285SOL     OW 3853   2.636   1.764  15.891
 1285SOL    HW1 3854   2.646   1.863  15.890
 1285SOL    HW2 3855   2.547   1.739  15.851
 1286SOL     OW 3856   0.130   1.505  13.483
 1286SOL    HW1 3857   0.079   1.481  13.400
 1286SOL    HW2 3858   0.072   1.488  13.563
 1287SOL     OW 3859   1.316   4.269  11.522
 1287SOL    HW1 3860   1.350   4.180  11.493
 1287SOL    HW2 3861   1.219   4.276  11.502
 1288SOL     OW 3862   0.457   5.145  11.518
 1288SOL    HW1 3863   0.457   5.244  11.531
 1288SOL    HW2 3864   0.405   5.102  11.592
 1289SOL     OW 3865   0.679   1.755  14.674
 1289SOL    HW1 3866   0.778   1.764  14.680
 1289SOL    HW2 3867   0.649   1.776  14.581
 1290SOL     OW 3868   1.617   4.720  15.806
 1290SOL    HW1 3869   1.622   4.810  15.851
 1290SOL    HW2 3870   1.669   4.722  15.721
 1291SOL     OW 3871   0.646   6.034  12.890
 1291SOL    HW1 3872   0.665   6.010  12.985
 1291SOL    HW2 3873   0.719   5.998  12.831
 1292SOL     OW 3874   5.970   3.155  12.702
 1292SOL    HW1 3875   5.962   3.255  12.697
 1292SOL    HW2 3876   6.057   3.131  12.744
 1293SOL     OW 3877   2.258   2.704  14.167
 1293SOL    HW1 3878   2.341   2.752  14.196
 1293SOL    HW2 3879   2.206   2.675  14.248
 1294SOL     OW 3880   1.119   4.705  11.691
 1294SOL    HW1 3881   1.113   4.804  11.704
 1294SOL    HW2 3882   1.148   4.686  11.597
 1295SOL     OW 3883   6.225   3.988  12.633
 1295SOL    HW1 3884   6.283   4.070  12.632
 1295SOL    HW2 3885   6.206   3.960  12.539
 1296SOL     OW 3886   0.266   4.733  14.533
 1296SOL    HW1 3887   0.341   4.684  14.576
 1296SOL    HW2 3888   0.294   4.828  14.514
 1297SOL     OW 3889   4.662   2.921  14.009
 1297SOL    HW1 3890   4.582   2.910  13.950
 1297SOL    HW2 3891   4.688   2.832  14.046
 1298SOL     OW 3892   4.396   5.752  13.756
 1298SOL    HW1 3893   4.311   5.702  13.773
 1298SOL    HW2 3894   4.384   5.848  13.783
 1299SOL     OW 3895   2.616   4.307  15.378
 1299SOL    HW1 3896   2.606   4.255  15.463
 1299SOL    HW2 3897   2.531   4.301  15.326
 1300SOL     OW 3898   3.449   3.461  13.908
 1300SOL    HW1 3899   3.354   3.442  13.934
 1300SOL    HW2 3900   3.511   3.413  13.969
 1301SOL     OW 3901   0.147   4.764  13.502
 1301SOL    HW1 3902   0.103   4.830  13.564
 1301SOL    HW2 3903   0.078   4.698  13.471
 1302SOL     OW 3904   0.176   4.478  11.237
 1302SOL    HW1 3905   0.211   4.504  11.147
 1302SOL    HW2 3906   0.222   4.394  11.267
 1303SOL     OW 3907   2.932   4.732  13.652
 1303SOL    HW1 3908   2.836   4.716  13.672
 1303SOL    HW2 3909   2.951   4.830  13.652
 1304SOL     OW 3910   4.187   1.801  12.481
 1304SOL    HW1 3911   4.274   1.850  12.485
 1304SOL    HW2 3912   4.112   1.866  12.474
 1305SOL     OW 3913   0.402   0.226  13.207
 1305SOL    HW1 3914   0.382   0.172  13.125
 1305SOL    HW2 3915   0.442   0.167  13.277
 1306SOL     OW 3916   5.733   5.225  14.101
 1306SOL    HW1 3917   5.769   5.225  14.195
 1306SOL    HW2 3918   5.706   5.132  14.075
 1307SOL     OW 3919   1.610   4.460  15.926
 1307SOL    HW1 3920   1.596   4.549  15.883
 1307SOL    HW2 3921   1.627   4.391  15.856
 1308SOL     OW 3922   5.658   1.567  15.912
 1308SOL    HW1 3923   5.748   1.537  15.883
 1308SOL    HW2 3924   5.644   1.544  16.009
 1309SOL     OW 3925   1.121   5.221  11.812
 1309SOL    HW1 3926   1.121   5.164  11.894
 1309SOL    HW2 3927   1.089   5.313  11.835
 1310SOL     OW 3928   4.530   2.746  13.800
 1310SOL    HW1 3929   4.606   2.698  13.756
 1310SOL    HW2 3930   4.453   2.753  13.736
 1311SOL     OW 3931   4.210   2.404  12.282
 1311SOL    HW1 3932   4.168   2.426  12.370
 1311SOL    HW2 3933   4.247   2.311  12.284
 1312SOL     OW 3934   4.586   6.030  14.831
 1312SOL    HW1 3935   4.625   6.111  14.789
 1312SOL    HW2 3936   4.649   5.995  14.901
 1313SOL     OW 3937   4.756   4.429  14.062
 1313SOL    HW1 3938   4.698   4.445  14.141
 1313SOL    HW2 3939   4.700   4.407  13.982
 1314SOL     OW 3940   1.448   1.519  14.836
 1314SOL    HW1 3941   1.492   1.549  14.752
 1314SOL    HW2 3942   1.514   1.518  14.911
 1315SOL     OW 3943   2.199   5.557  15.151
 1315SOL    HW1 3944   2.263   5.498  15.103
 1315SOL    HW2 3945   2.111   5.510  15.160
 1316SOL     OW 3946   5.195   5.555  13.430
 1316SOL    HW1 3947   5.110   5.508  13.407
 1316SOL    HW2 3948   5.204   5.560  13.530
 1317SOL     OW 3949   0.831   5.608  14.841
 1317SOL    HW1 3950   0.786   5.638  14.925
 1317SOL    HW2 3951   0.829   5.508  14.837
 1318SOL     OW 3952   3.757   5.961  13.813
 1318SOL    HW1 3953   3.691   5.888  13.835
 1318SOL    HW2 3954   3.850   5.928  13.831
 1319SOL     OW 3955   0.931   3.363  12.379
 1319SOL    HW1 3956   0.998   3.415  12.326
 1319SOL    HW2 3957   0.972   3.333  12.465
 1320SOL     OW 3958   4.603   5.118  15.439
 1320SOL    HW1 3959   4.667   5.141  15.512
 1320SOL    HW2 3960   4.596   5.196  15.376
 1321SOL     OW 3961   4.340   3.688  12.591
 1321SOL    HW1 3962   4.384   3.611  12.637
 1321SOL    HW2 3963   4.399   3.721  12.517
 1322SOL     OW 3964   3.727   0.463  13.955
 1322SOL    HW1 3965   3.676   0.379  13.971
 1322SOL    HW2 3966   3.774   0.458  13.866
 1323SOL     OW 3967   4.699   2.545  13.495
 1323SOL    HW1 3968   4.632   2.479  13.531
 1323SOL    HW2 3969   4.719   2.523  13.400
 1324SOL     OW 3970   0.721   2.528  13.820
 1324SOL    HW1 3971   0.777   2.609  13.836
 1324SOL    HW2 3972   0.652   2.520  13.892
 1325SOL     OW 3973   4.301   0.653  12.147
 1325SOL    HW1 3974   4.241   0.685  12.220
 1325SOL    HW2 3975   4.360   0.580  12.182
 1326SOL     OW 3976   0.423   1.823  11.813
 1326SOL    HW1 3977   0.391   1.824  11.718
 1326SOL    HW2 3978   0.501   1.762  11.822
 1327SOL     OW 3979   4.105   2.842  15.307
 1327SOL    HW1 3980   4.167   2.808  15.378
 1327SOL    HW2 3981   4.058   2.766  15.264
 1328SOL     OW 3982   4.108   3.363  15.100
 1328SOL    HW1 3983   4.180   3.421  15.064
 1328SOL    HW2 3984   4.035   3.353  15.032
 1329SOL     OW 3985   6.160   0.991  15.131
 1329SOL    HW1 3986   6.090   1.059  15.151
 1329SOL    HW2 3987   6.246   1.018  15.176
 1330SOL     OW 3988   1.293   5.862  14.148
 1330SOL    HW1 3989   1.202   5.825  14.129
 1330SOL    HW2 3990   1.349   5.855  14.065
 1331SOL     OW 3991   1.830   1.719  11.418
 1331SOL    HW1 3992   1.817   1.657  11.340
 1331SOL    HW2 3993   1.804   1.812  11.391
 1332SOL     OW 3994   5.834   0.055  13.396
 1332SOL    HW1 3995   5.876   0.144  13.415
 1332SOL    HW2 3996   5.873   0.017  13.312
 1333SOL     OW 3997   5.191   5.685  12.165
 1333SOL    HW1 3998   5.234   5.620  12.227
 1333SOL    HW2 3999   5.246   5.768  12.159
 1334SOL     OW 4000   4.781   3.553  11.713
 1334SOL    HW1 4001   4.760   3.580  11.807
 1334SOL    HW2 4002   4.698   3.521  11.668
 1335SOL     OW 4003   1.993   4.100  15.265
 1335SOL    HW1 4004   2.077   4.055  15.235
 1335SOL    HW2 4005   1.999   4.198  15.245
 1336SOL     OW 4006   3.455   5.022  13.002
 1336SOL    HW1 4007   3.550   4.991  13.006
 1336SOL    HW2 4008   3.394   4.947  13.026
 1337SOL     OW 4009   6.008   1.217  15.222
 1337SOL    HW1 4010   6.051   1.255  15.304
 1337SOL    HW2 4011   5.944   1.284  15.184
 1338SOL     OW 4012   3.313   1.810  11.347
 1338SOL    HW1 4013   3.402   1.853  11.332
 1338SOL    HW2 4014   3.242   1.881  11.354
 1339SOL     OW 4015   1.683   3.915  15.805
 1339SOL    HW1 4016   1.600   3.860  15.796
 1339SOL    HW2 4017   1.692   3.947  15.900
 1340SOL     OW 4018   4.087   1.424  12.527
 1340SOL    HW1 4019   4.129   1.503  12.571
 1340SOL    HW2 4020   4.100   1.342  12.583
 1341SOL     OW 4021   6.012   5.077  15.305
 1341SOL    HW1 4022   6.081   5.005  15.316
 1341SOL    HW2 4023   6.057   5.163  15.281
 1342SOL     OW 4024   0.901   0.456  13.785
 1342SOL    HW1 4025   0.909   0.521  13.709
 1342SOL    HW2 4026   0.916   0.503  13.872
 1343SOL     OW 4027   4.534   5.177  13.454
 1343SOL    HW1 4028   4.490   5.093  13.486
 1343SOL    HW2 4029   4.628   5.180  13.488
 1344SOL     OW 4030   4.913   3.821  11.514
 1344SOL    HW1 4031   4.955   3.745  11.565
 1344SOL    HW2 4032   4.845   3.785  11.450
 1345SOL     OW 4033   5.226   5.538  14.089
 1345SOL    HW1 4034   5.209   5.603  14.016
 1345SOL    HW2 4035   5.217   5.444  14.054
 1346SOL     OW 4036   5.271   6.070  12.498
 1346SOL    HW1 4037   5.211   6.150  12.495
 1346SOL    HW2 4038   5.253   6.018  12.582
 1347SOL     OW 4039   5.055   3.044  15.920
 1347SOL    HW1 4040   5.034   2.992  16.003
 1347SOL    HW2 4041   5.113   2.988  15.860
 1348SOL     OW 4042   0.184   1.411  15.876
 1348SOL    HW1 4043   0.232   1.435  15.960
 1348SOL    HW2 4044   0.097   1.367  15.899
 1349SOL     OW 4045   0.155   4.737  11.423
 1349SOL    HW1 4046   0.189   4.664  11.364
 1349SOL    HW2 4047   0.080   4.702  11.480
 1350SOL     OW 4048   6.211   4.043  12.342
 1350SOL    HW1 4049   6.238   4.074  12.251
 1350SOL    HW2 4050   6.112   4.026  12.343
 1351SOL     OW 4051   1.626   4.974  12.948
 1351SOL    HW1 4052   1.549   5.034  12.927
 1351SOL    HW2 4053   1.595   4.879  12.948
 1352SOL     OW 4054   2.171   1.377  14.079
 1352SOL    HW1 4055   2.151   1.310  14.008
 1352SOL    HW2 4056   2.269   1.395  14.081
 1353SOL     OW 4057   6.161   3.284  14.573
 1353SOL    HW1 4058   6.211   3.340  14.507
 1353SOL    HW2 4059   6.171   3.188  14.550
 1354SOL     OW 4060   3.276   3.887  15.936
 1354SOL    HW1 4061   3.359   3.859  15.889
 1354SOL    HW2 4062   3.252   3.819  16.005
 1355SOL     OW 4063   0.042   0.579  14.434
 1355SOL    HW1 4064  -0.008   0.540  14.512
 1355SOL    HW2 4065   0.115   0.638  14.468
 1356SOL     OW 4066   2.086   3.918  14.098
 1356SOL    HW1 4067   2.130   3.846  14.044
 1356SOL    HW2 4068   2.042   3.983  14.037
 1357SOL     OW 4069   5.040   1.493  14.518
 1357SOL    HW1 4070   5.075   1.399  14.518
 1357SOL    HW2 4071   4.948   1.494  14.480
 1358SOL     OW 4072   2.526   4.137  15.585
 1358SOL    HW1 4073   2.581   4.071  15.637
 1358SOL    HW2 4074   2.429   4.124  15.606
 1359SOL     OW 4075   6.217   2.224  15.853
 1359SOL    HW1 4076   6.174   2.209  15.764
 1359SOL    HW2 4077   6.313   2.196  15.849
 1360SOL     OW 4078   4.204   4.535  15.757
 1360SOL    HW1 4079   4.271   4.493  15.818
 1360SOL    HW2 4080   4.197   4.480  15.673
 1361SOL     OW 4081   0.702   5.242  15.070
 1361SOL    HW1 4082   0.801   5.246  15.060
 1361SOL    HW2 4083   0.659   5.305  15.005
 1362SOL     OW 4084   0.116   4.585  12.786
 1362SOL    HW1 4085   0.141   4.488  12.777
 1362SOL    HW2 4086   0.016   4.593  12.790
 1363SOL     OW 4087   0.217   4.059  11.461
 1363SOL    HW1 4088   0.125   4.028  11.482
 1363SOL    HW2 4089   0.274   4.052  11.543
 1364SOL     OW 4090   2.638   3.668  15.442
 1364SOL    HW1 4091   2.561   3.674  15.506
 1364SOL    HW2 4092   2.702   3.598  15.473
 1365SOL     OW 4093   1.477   2.027  12.091
 1365SOL    HW1 4094   1.544   2.077  12.034
 1365SOL    HW2 4095   1.497   2.043  12.187
 1366SOL     OW 4096   2.979   5.899  12.232
 1366SOL    HW1 4097   2.920   5.874  12.309
 1366SOL    HW2 4098   3.072   5.866  12.248
 1367SOL     OW 4099   4.351   4.524  14.602
 1367SOL    HW1 4100   4.394   4.491  14.686
 1367SOL    HW2 4101   4.261   4.481  14.592
 1368SOL     OW 4102   0.114   1.742  12.054
 1368SOL    HW1 4103   0.076   1.819  12.106
 1368SOL    HW2 4104   0.193   1.773  12.000
 1369SOL     OW 4105   5.234   0.485  14.669
 1369SOL    HW1 4106   5.193   0.562  14.716
 1369SOL    HW2 4107   5.189   0.400  14.697
 1370SOL     OW 4108   5.053   1.923  14.540
 1370SOL    HW1 4109   5.002   1.869  14.607
 1370SOL    HW2 4110   4.997   1.938  14.459
 1371SOL     OW 4111   0.345   3.886  13.302
 1371SOL    HW1 4112   0.273   3.942  13.343
 1371SOL    HW2 4113   0.330   3.879  13.204
 1372SOL     OW 4114   4.829   5.596  12.318
 1372SOL    HW1 4115   4.839   5.677  12.260
 1372SOL    HW2 4116   4.898   5.528  12.293
 1373SOL     OW 4117   3.498   2.838  13.971
 1373SOL    HW1 4118   3.420   2.781  13.944
 1373SOL    HW2 4119   3.559   2.849  13.893
 1374SOL     OW 4120   3.451   4.012  15.416
 1374SOL    HW1 4121   3.422   3.938  15.476
 1374SOL    HW2 4122   3.537   4.051  15.450
 1375SOL     OW 4123   2.595   0.326  14.804
 1375SOL    HW1 4124   2.625   0.400  14.744
 1375SOL    HW2 4125   2.669   0.261  14.817
 1376SOL     OW 4126   4.149   2.216  13.833
 1376SOL    HW1 4127   4.229   2.174  13.874
 1376SOL    HW2 4128   4.171   2.310  13.805
 1377SOL     OW 4129   5.665   2.630  14.877
 1377SOL    HW1 4130   5.762   2.656  14.884
 1377SOL    HW2 4131   5.608   2.710  14.898
 1378SOL     OW 4132   1.807   0.474  14.739
 1378SOL    HW1 4133   1.823   0.428  14.652
 1378SOL    HW2 4134   1.724   0.530  14.732
 1379SOL     OW 4135   3.030   5.695  15.283
 1379SOL    HW1 4136   3.013   5.792  15.296
 1379SOL    HW2 4137   2.963   5.657  15.220
 1380SOL     OW 4138   4.665   1.300  14.298
 1380SOL    HW1 4139   4.710   1.300  14.209
 1380SOL    HW2 4140   4.577   1.347  14.290
 1381SOL     OW 4141   4.212   6.136  14.247
 1381SOL    HW1 4142   4.145   6.170  14.313
 1381SOL    HW2 4143   4.203   6.037  14.239
 1382SOL     OW 4144  -0.002   5.784  14.541
 1382SOL    HW1 4145   0.017   5.843  14.619
 1382SOL    HW2 4146   0.052   5.813  14.462
 1383SOL     OW 4147   0.526   2.227  12.526
 1383SOL    HW1 4148   0.621   2.256  12.533
 1383SOL    HW2 4149   0.468   2.288  12.580
 1384SOL     OW 4150   0.284   2.252  13.712
 1384SOL    HW1 4151   0.374   2.290  13.733
 1384SOL    HW2 4152   0.285   2.153  13.727
 1385SOL     OW 4153   1.333   4.633  13.080
 1385SOL    HW1 4154   1.288   4.577  13.150
 1385SOL    HW2 4155   1.263   4.679  13.025
 1386SOL     OW 4156   4.866   5.008  15.091
 1386SOL    HW1 4157   4.775   5.027  15.052
 1386SOL    HW2 4158   4.877   5.060  15.175
 1387SOL     OW 4159   2.702   1.694  14.002
 1387SOL    HW1 4160   2.675   1.601  13.978
 1387SOL    HW2 4161   2.625   1.756  13.985
 1388SOL     OW 4162   5.252   0.223  15.756
 1388SOL    HW1 4163   5.308   0.156  15.707
 1388SOL    HW2 4164   5.157   0.195  15.754
 1389SOL     OW 4165   0.852   4.063  11.836
 1389SOL    HW1 4166   0.818   4.060  11.929
 1389SOL    HW2 4167   0.940   4.016  11.831
 1390SOL     OW 4168   0.491   4.917  14.558
 1390SOL    HW1 4169   0.502   4.940  14.655
 1390SOL    HW2 4170   0.581   4.913  14.514
 1391SOL     OW 4171   5.192   3.043  12.250
 1391SOL    HW1 4172   5.164   3.010  12.160
 1391SOL    HW2 4173   5.160   2.980  12.321
 1392SOL     OW 4174   1.780   3.156  15.872
 1392SOL    HW1 4175   1.862   3.161  15.816
 1392SOL    HW2 4176   1.699   3.169  15.815
 1393SOL     OW 4177   2.288   0.118  14.378
 1393SOL    HW1 4178   2.239   0.196  14.416
 1393SOL    HW2 4179   2.238   0.034  14.398
 1394SOL     OW 4180   2.228   4.219  11.735
 1394SOL    HW1 4181   2.134   4.242  11.709
 1394SOL    HW2 4182   2.248   4.125  11.708
 1395SOL     OW 4183   5.284   1.301  14.156
 1395SOL    HW1 4184   5.364   1.240  14.160
 1395SOL    HW2 4185   5.216   1.271  14.223
 1396SOL     OW 4186   5.060   2.488  14.790
 1396SOL    HW1 4187   5.140   2.428  14.787
 1396SOL    HW2 4188   5.078   2.571  14.737
 1397SOL     OW 4189   0.132   1.080  11.922
 1397SOL    HW1 4190   0.126   1.002  11.859
 1397SOL    HW2 4191   0.202   1.061  11.991
 1398SOL     OW 4192   0.374   4.888  11.320
 1398SOL    HW1 4193   0.287   4.855  11.357
 1398SOL    HW2 4194   0.385   4.984  11.343
 1399SOL     OW 4195   2.538   1.534  13.260
 1399SOL    HW1 4196   2.504   1.439  13.258
 1399SOL    HW2 4197   2.635   1.535  13.234
 1400SOL     OW 4198   1.937   4.309  12.419
 1400SOL    HW1 4199   1.944   4.294  12.320
 1400SOL    HW2 4200   1.864   4.374  12.438
 1401SOL     OW 4201   2.028   4.010  14.715
 1401SOL    HW1 4202   2.050   4.081  14.782
 1401SOL    HW2 4203   2.111   3.961  14.689
 1402SOL     OW 4204   0.800   1.850  15.362
 1402SOL    HW1 4205   0.727   1.786  15.387
 1402SOL    HW2 4206   0.822   1.840  15.265
 1403SOL     OW 4207   1.396   0.640  14.201
 1403SOL    HW1 4208   1.427   0.553  14.164
 1403SOL    HW2 4209   1.317   0.625  14.261
 1404SOL     OW 4210   0.730   2.533  11.724
 1404SOL    HW1 4211   0.784   2.535  11.808
 1404SOL    HW2 4212   0.636   2.558  11.745
 1405SOL     OW 4213   2.718   4.221  12.258
 1405SOL    HW1 4214   2.738   4.271  12.342
 1405SOL    HW2 4215   2.702   4.287  12.184
 1406SOL     OW 4216   2.672   0.199  13.181
 1406SOL    HW1 4217   2.597   0.242  13.231
 1406SOL    HW2 4218   2.707   0.122  13.234
 1407SOL     OW 4219   0.266   3.905  15.638
 1407SOL    HW1 4220   0.346   3.908  15.578
 1407SOL    HW2 4221   0.265   3.819  15.688
 1408SOL     OW 4222   3.548   1.630  11.835
 1408SOL    HW1 4223   3.514   1.606  11.926
 1408SOL    HW2 4224   3.489   1.589  11.765
 1409SOL     OW 4225   1.063   1.917  15.475
 1409SOL    HW1 4226   1.068   1.818  15.466
 1409SOL    HW2 4227   0.981   1.951  15.427
 1410SOL     OW 4228   3.189   3.968  14.524
 1410SOL    HW1 4229   3.108   3.909  14.529
 1410SOL    HW2 4230   3.202   4.014  14.612
 1411SOL     OW 4231   3.240   0.419  11.871
 1411SOL    HW1 4232   3.293   0.436  11.788
 1411SOL    HW2 4233   3.176   0.344  11.855
 1412SOL     OW 4234   0.557   5.079  13.972
 1412SOL    HW1 4235   0.492   5.009  14.001
 1412SOL    HW2 4236   0.649   5.052  13.998
 1413SOL     OW 4237   0.031   3.289  14.316
 1413SOL    HW1 4238   0.023   3.316  14.220
 1413SOL    HW2 4239   0.111   3.230  14.328
 1414SOL     OW 4240   0.298   5.103  14.161
 1414SOL    HW1 4241   0.247   5.137  14.240
 1414SOL    HW2 4242   0.354   5.176  14.124
 1415SOL     OW 4243   5.446   3.192  12.137
 1415SOL    HW1 4244   5.458   3.290  12.121
 1415SOL    HW2 4245   5.356   3.175  12.178
 1416SOL     OW 4246   2.271   3.884  14.673
 1416SOL    HW1 4247   2.359   3.920  14.640
 1416SOL    HW2 4248   2.284   3.790  14.706
 1417SOL     OW 4249   3.906   1.693  11.589
 1417SOL    HW1 4250   3.970   1.623  11.557
 1417SOL    HW2 4251   3.830   1.649  11.637
 1418SOL     OW 4252   1.086   1.586  12.150
 1418SOL    HW1 4253   0.995   1.556  12.180
 1418SOL    HW2 4254   1.115   1.664  12.207
 1419SOL     OW 4255   5.503   5.357  14.855
 1419SOL    HW1 4256   5.498   5.269  14.901
 1419SOL    HW2 4257   5.452   5.353  14.769
 1420SOL     OW 4258   6.234   1.316  14.198
 1420SOL    HW1 4259   6.267   1.381  14.267
 1420SOL    HW2 4260   6.286   1.231  14.204
 1421SOL     OW 4261   2.898   1.678  14.590
 1421SOL    HW1 4262   2.894   1.580  14.610
 1421SOL    HW2 4263   2.922   1.728  14.673
 1422SOL     OW 4264   5.419   1.979  15.556
 1422SOL    HW1 4265   5.463   2.057  15.512
 1422SOL    HW2 4266   5.477   1.899  15.548
 1423SOL     OW 4267   2.503   6.164  15.097
 1423SOL    HW1 4268   2.406   6.140  15.104
 1423SOL    HW2 4269   2.559   6.087  15.125
 1424SOL     OW 4270   4.195   2.780  11.888
 1424SOL    HW1 4271   4.274   2.720  11.900
 1424SOL    HW2 4272   4.113   2.736  11.927
 1425SOL     OW 4273   4.604   1.078  14.483
 1425SOL    HW1 4274   4.616   1.171  14.449
 1425SOL    HW2 4275   4.688   1.026  14.469
 1426SOL     OW 4276   5.363   3.190  12.768
 1426SOL    HW1 4277   5.460   3.214  12.761
 1426SOL    HW2 4278   5.342   3.120  12.700
 1427SOL     OW 4279   3.054   5.266  14.080
 1427SOL    HW1 4280   3.150   5.241  14.093
 1427SOL    HW2 4281   3.036   5.355  14.122
 1428SOL     OW 4282   2.284   2.130  15.570
 1428SOL    HW1 4283   2.309   2.225  15.591
 1428SOL    HW2 4284   2.211   2.101  15.632
 1429SOL     OW 4285   2.362   1.893  15.355
 1429SOL    HW1 4286   2.287   1.938  15.306
 1429SOL    HW2 4287   2.373   1.935  15.445
 1430SOL     OW 4288   2.023   5.258  11.498
 1430SOL    HW1 4289   2.017   5.158  11.506
 1430SOL    HW2 4290   1.935   5.299  11.520
 1431SOL     OW 4291   3.695   3.766  13.573
 1431SOL    HW1 4292   3.719   3.721  13.659
 1431SOL    HW2 4293   3.630   3.840  13.592
 1432SOL     OW 4294   0.773   0.840  11.548
 1432SOL    HW1 4295   0.690   0.785  11.536
 1432SOL    HW2 4296   0.762   0.928  11.502
 1433SOL     OW 4297   3.722   3.837  15.587
 1433SOL    HW1 4298   3.772   3.786  15.657
 1433SOL    HW2 4299   3.767   3.824  15.498
 1434SOL     OW 4300   5.262   4.711  11.091
 1434SOL    HW1 4301   5.245   4.787  11.154
 1434SOL    HW2 4302   5.176   4.666  11.069
 1435SOL     OW 4303   4.578   5.882  11.399
 1435SOL    HW1 4304   4.597   5.912  11.493
 1435SOL    HW2 4305   4.662   5.848  11.358
 1436SOL     OW 4306   5.984   1.247  15.732
 1436SOL    HW1 4307   5.993   1.217  15.827
 1436SOL    HW2 4308   5.897   1.214  15.696
 1437SOL     OW 4309   3.846   3.072  13.465
 1437SOL    HW1 4310   3.874   3.151  13.410
 1437SOL    HW2 4311   3.778   3.102  13.533
 1438SOL     OW 4312   4.629   4.589  12.840
 1438SOL    HW1 4313   4.606   4.684  12.863
 1438SOL    HW2 4314   4.546   4.536  12.830
 1439SOL     OW 4315   3.318   5.185  14.111
 1439SOL    HW1 4316   3.410   5.196  14.149
 1439SOL    HW2 4317   3.309   5.093  14.073
 1440SOL     OW 4318   4.844   4.933  14.452
 1440SOL    HW1 4319   4.861   4.897  14.360
 1440SOL    HW2 4320   4.759   4.894  14.487
 1441SOL     OW 4321   3.637   2.552  12.863
 1441SOL    HW1 4322   3.711   2.503  12.908
 1441SOL    HW2 4323   3.616   2.636  12.913
 1442SOL     OW 4324   0.761   4.588  14.081
 1442SOL    HW1 4325   0.707   4.509  14.052
 1442SOL    HW2 4326   0.775   4.649  14.002
 1443SOL     OW 4327   5.262   4.467  14.301
 1443SOL    HW1 4328   5.170   4.436  14.276
 1443SOL    HW2 4329   5.292   4.419  14.383
 1444SOL     OW 4330   1.602   2.300  13.750
 1444SOL    HW1 4331   1.575   2.383  13.799
 1444SOL    HW2 4332   1.574   2.219  13.802
 1445SOL     OW 4333   1.304   3.200  14.348
 1445SOL    HW1 4334   1.354   3.115  14.364
 1445SOL    HW2 4335   1.349   3.252  14.276
 1446SOL     OW 4336   0.304   5.574  14.825
 1446SOL    HW1 4337   0.213   5.589  14.788
 1446SOL    HW2 4338   0.332   5.654  14.878
 1447SOL     OW 4339   0.349   2.758  14.459
 1447SOL    HW1 4340   0.339   2.852  14.490
 1447SOL    HW2 4341   0.269   2.732  14.404
 1448SOL     OW 4342   3.940   5.507  12.316
 1448SOL    HW1 4343   4.018   5.465  12.270
 1448SOL    HW2 4344   3.885   5.557  12.249
 1449SOL     OW 4345   1.624   4.251  14.211
 1449SOL    HW1 4346   1.579   4.162  14.220
 1449SOL    HW2 4347   1.691   4.247  14.137
 1450SOL     OW 4348   3.938   0.275  12.806
 1450SOL    HW1 4349   3.873   0.199  12.797
 1450SOL    HW2 4350   3.973   0.278  12.900
 1451SOL     OW 4351   3.441   3.288  14.139
 1451SOL    HW1 4352   3.437   3.315  14.235
 1451SOL    HW2 4353   3.414   3.193  14.129
 1452SOL     OW 4354   5.378   0.497  15.685
 1452SOL    HW1 4355   5.335   0.408  15.700
 1452SOL    HW2 4356   5.314   0.558  15.640
 1453SOL     OW 4357   6.082   0.126  11.455
 1453SOL    HW1 4358   6.035   0.038  11.446
 1453SOL    HW2 4359   6.164   0.125  11.398
 1454SOL     OW 4360   5.133   3.793  12.141
 1454SOL    HW1 4361   5.204   3.737  12.099
 1454SOL    HW2 4362   5.129   3.774  12.239
 1455SOL     OW 4363   1.282   1.690  15.867
 1455SOL    HW1 4364   1.351   1.761  15.852
 1455SOL    HW2 4365   1.195   1.719  15.829
 1456SOL     OW 4366   4.377   5.354  13.205
 1456SOL    HW1 4367   4.349   5.298  13.283
 1456SOL    HW2 4368   4.472   5.384  13.217
 1457SOL     OW 4369   0.115   6.076  12.212
 1457SOL    HW1 4370   0.057   6.125  12.147
 1457SOL    HW2 4371   0.119   5.980  12.187
 1458SOL     OW 4372   2.776   6.124  12.163
 1458SOL    HW1 4373   2.825   6.067  12.097
 1458SOL    HW2 4374   2.840   6.161  12.229
 1459SOL     OW 4375   2.651   0.470  11.595
 1459SOL    HW1 4376   2.738   0.513  11.619
 1459SOL    HW2 4377   2.578   0.511  11.650
 1460SOL     OW 4378   5.782   5.679  11.787
 1460SOL    HW1 4379   5.799   5.764  11.836
 1460SOL    HW2 4380   5.685   5.655  11.792
 1461SOL     OW 4381   5.102   0.400  13.497
 1461SOL    HW1 4382   5.083   0.381  13.593
 1461SOL    HW2 4383   5.168   0.334  13.462
 1462SOL     OW 4384   1.211   6.261  13.291
 1462SOL    HW1 4385   1.293   6.219  13.252
 1462SOL    HW2 4386   1.227   6.283  13.387
 1463SOL     OW 4387   1.045   0.661  11.281
 1463SOL    HW1 4388   1.003   0.719  11.351
 1463SOL    HW2 4389   1.141   0.644  11.304
 1464SOL     OW 4390   2.967   2.408  12.440
 1464SOL    HW1 4391   3.059   2.411  12.399
 1464SOL    HW2 4392   2.960   2.328  12.499
 1465SOL     OW 4393   6.033   0.243  13.853
 1465SOL    HW1 4394   6.022   0.248  13.952
 1465SOL    HW2 4395   6.129   0.255  13.829
 1466SOL     OW 4396   2.425   2.492  15.786
 1466SOL    HW1 4397   2.516   2.452  15.781
 1466SOL    HW2 4398   2.390   2.485  15.880
 1467SOL     OW 4399   1.445   5.916  11.577
 1467SOL    HW1 4400   1.390   6.000  11.570
 1467SOL    HW2 4401   1.527   5.935  11.631
 1468SOL     OW 4402   5.674   5.070  11.436
 1468SOL    HW1 4403   5.678   5.073  11.536
 1468SOL    HW2 4404   5.746   5.128  11.398
 1469SOL     OW 4405   3.029   2.586  14.016
 1469SOL    HW1 4406   3.046   2.594  14.114
 1469SOL    HW2 4407   2.943   2.538  14.000
 1470SOL     OW 4408   3.117   2.480  14.827
 1470SOL    HW1 4409   3.063   2.535  14.891
 1470SOL    HW2 4410   3.183   2.538  14.781
 1471SOL     OW 4411   4.348   1.727  13.853
 1471SOL    HW1 4412   4.280   1.799  13.837
 1471SOL    HW2 4413   4.418   1.732  13.781
 1472SOL     OW 4414   1.099   3.737  15.705
 1472SOL    HW1 4415   1.130   3.825  15.668
 1472SOL    HW2 4416   1.178   3.686  15.739
 1473SOL     OW 4417   0.887   3.497  11.627
 1473SOL    HW1 4418   0.871   3.553  11.708
 1473SOL    HW2 4419   0.968   3.440  11.641
 1474SOL     OW 4420   5.804   3.304  11.385
 1474SOL    HW1 4421   5.843   3.222  11.426
 1474SOL    HW2 4422   5.707   3.289  11.365
 1475SOL     OW 4423   1.162   1.776  13.627
 1475SOL    HW1 4424   1.195   1.690  13.588
 1475SOL    HW2 4425   1.109   1.826  13.558
 1476SOL     OW 4426   2.467   5.689  15.285
 1476SOL    HW1 4427   2.412   5.664  15.364
 1476SOL    HW2 4428   2.408   5.698  15.205
 1477SOL     OW 4429   4.803   2.153  13.146
 1477SOL    HW1 4430   4.887   2.181  13.101
 1477SOL    HW2 4431   4.813   2.060  13.182
 1478SOL     OW 4432   1.550   1.405  12.556
 1478SOL    HW1 4433   1.469   1.405  12.615
 1478SOL    HW2 4434   1.581   1.499  12.541
 1479SOL     OW 4435   3.622   0.531  15.596
 1479SOL    HW1 4436   3.554   0.543  15.525
 1479SOL    HW2 4437   3.672   0.446  15.581
 1480SOL     OW 4438   2.189   4.447  15.118
 1480SOL    HW1 4439   2.241   4.490  15.192
 1480SOL    HW2 4440   2.252   4.422  15.044
 1481SOL     OW 4441   5.739   1.065  15.343
 1481SOL    HW1 4442   5.736   0.965  15.340
 1481SOL    HW2 4443   5.830   1.096  15.315
 1482SOL     OW 4444   0.934   5.487  13.866
 1482SOL    HW1 4445   1.004   5.545  13.825
 1482SOL    HW2 4446   0.845   5.507  13.823
 1483SOL     OW 4447   5.877   1.046  15.915
 1483SOL    HW1 4448   5.927   0.960  15.915
 1483SOL    HW2 4449   5.786   1.033  15.956
 1484SOL     OW 4450   3.913   1.358  15.254
 1484SOL    HW1 4451   3.974   1.310  15.191
 1484SOL    HW2 4452   3.942   1.340  15.348
 1485SOL     OW 4453   5.376   3.895  14.809
 1485SOL    HW1 4454   5.421   3.934  14.890
 1485SOL    HW2 4455   5.418   3.808  14.786
 1486SOL     OW 4456   0.594   1.121  15.036
 1486SOL    HW1 4457   0.539   1.088  14.959
 1486SOL    HW2 4458   0.576   1.218  15.051
 1487SOL     OW 4459   5.140   5.043  11.251
 1487SOL    HW1 4460   5.179   5.065  11.340
 1487SOL    HW2 4461   5.102   5.126  11.210
 1488SOL     OW 4462   3.535   1.958  11.173
 1488SOL    HW1 4463   3.621   1.915  11.149
 1488SOL    HW2 4464   3.484   1.981  11.090
 1489SOL     OW 4465   4.477   5.715  14.708
 1489SOL    HW1 4466   4.469   5.761  14.797
 1489SOL    HW2 4467   4.559   5.748  14.661
 1490SOL     OW 4468   0.498   4.782  12.209
 1490SOL    HW1 4469   0.470   4.878  12.204
 1490SOL    HW2 4470   0.597   4.776  12.222
 1491SOL     OW 4471   1.381   0.872  15.346
 1491SOL    HW1 4472   1.285   0.890  15.369
 1491SOL    HW2 4473   1.404   0.778  15.372
 1492SOL     OW 4474   5.707   4.711  14.772
 1492SOL    HW1 4475   5.627   4.744  14.722
 1492SOL    HW2 4476   5.712   4.611  14.765
 1493SOL     OW 4477   5.148   0.420  13.070
 1493SOL    HW1 4478   5.224   0.446  13.010
 1493SOL    HW2 4479   5.076   0.377  13.016
 1494SOL     OW 4480   3.014   0.947  12.431
 1494SOL    HW1 4481   3.020   0.848  12.446
 1494SOL    HW2 4482   2.941   0.985  12.487
 1495SOL     OW 4483   3.016   2.424  12.040
 1495SOL    HW1 4484   2.984   2.329  12.037
 1495SOL    HW2 4485   3.049   2.445  12.132
 1496SOL     OW 4486   3.574   2.792  13.098
 1496SOL    HW1 4487   3.603   2.877  13.143
 1496SOL    HW2 4488   3.480   2.771  13.124
 1497SOL     OW 4489   1.740   3.003  12.158
 1497SOL    HW1 4490   1.833   3.038  12.163
 1497SOL    HW2 4491   1.678   3.078  12.133
 1498SOL     OW 4492   4.614   0.397  11.280
 1498SOL    HW1 4493   4.565   0.481  11.256
 1498SOL    HW2 4494   4.608   0.382  11.378
 1499SOL     OW 4495   0.362   1.088  12.206
 1499SOL    HW1 4496   0.383   1.186  12.202
 1499SOL    HW2 4497   0.431   1.041  12.261
 1500SOL     OW 4498   2.131   5.017  15.347
 1500SOL    HW1 4499   2.105   4.926  15.382
 1500SOL    HW2 4500   2.160   5.009  15.252
 1501SOL     OW 4501   3.665   1.754  13.656
 1501SOL    HW1 4502   3.648   1.846  13.692
 1501SOL    HW2 4503   3.679   1.691  13.732
 1502SOL     OW 4504   2.307   4.599  11.407
 1502SOL    HW1 4505   2.285   4.573  11.313
 1502SOL    HW2 4506   2.293   4.521  11.468
 1503SOL     OW 4507   5.604   4.835  15.731
 1503SOL    HW1 4508   5.638   4.768  15.665
 1503SOL    HW2 4509   5.643   4.817  15.821
 1504SOL     OW 4510   0.814   4.076  11.410
 1504SOL    HW1 4511   0.744   4.123  11.356
 1504SOL    HW2 4512   0.774   4.044  11.496
 1505SOL     OW 4513   4.405   2.035  15.014
 1505SOL    HW1 4514   4.449   2.124  15.007
 1505SOL    HW2 4515   4.329   2.031  14.949
 1506SOL     OW 4516   5.527   5.985  11.979
 1506SOL    HW1 4517   5.505   5.964  12.075
 1506SOL    HW2 4518   5.597   6.056  11.976
 1507SOL     OW 4519   4.390   0.449  14.089
 1507SOL    HW1 4520   4.338   0.527  14.125
 1507SOL    HW2 4521   4.423   0.471  13.997
 1508SOL     OW 4522   5.439   2.688  11.182
 1508SOL    HW1 4523   5.502   2.732  11.118
 1508SOL    HW2 4524   5.356   2.660  11.133
 1509SOL     OW 4525   3.667   4.944  14.567
 1509SOL    HW1 4526   3.611   4.865  14.592
 1509SOL    HW2 4527   3.623   5.028  14.598
 1510SOL     OW 4528   5.394   2.528  12.321
 1510SOL    HW1 4529   5.453   2.459  12.363
 1510SOL    HW2 4530   5.440   2.617  12.322
 1511SOL     OW 4531   3.551   5.915  13.449
 1511SOL    HW1 4532   3.522   5.996  13.399
 1511SOL    HW2 4533   3.651   5.906  13.444
 1512SOL     OW 4534   5.556   6.305  13.565
 1512SOL    HW1 4535   5.560   6.206  13.572
 1512SOL    HW2 4536   5.646   6.342  13.544
 1513SOL     OW 4537   0.310   1.879  14.940
 1513SOL    HW1 4538   0.360   1.919  14.863
 1513SOL    HW2 4539   0.356   1.796  14.970
 1514SOL     OW 4540   4.991   4.377  14.244
 1514SOL    HW1 4541   4.942   4.306  14.295
 1514SOL    HW2 4542   4.942   4.399  14.160
 1515SOL     OW 4543   1.443   1.188  11.356
 1515SOL    HW1 4544   1.486   1.187  11.446
 1515SOL    HW2 4545   1.353   1.231  11.362
 1516SOL     OW 4546   0.288   2.529  12.306
 1516SOL    HW1 4547   0.343   2.529  12.222
 1516SOL    HW2 4548   0.308   2.446  12.358
 1517SOL     OW 4549   4.777   5.983  15.041
 1517SOL    HW1 4550   4.853   5.926  15.073
 1517SOL    HW2 4551   4.728   6.019  15.120
 1518SOL     OW 4552   5.609   5.508  15.388
 1518SOL    HW1 4553   5.660   5.566  15.325
 1518SOL    HW2 4554   5.579   5.425  15.340
 1519SOL     OW 4555   2.483   1.275  14.479
 1519SOL    HW1 4556   2.422   1.270  14.557
 1519SOL    HW2 4557   2.576   1.294  14.510
 1520SOL     OW 4558   4.341   5.292  11.867
 1520SOL    HW1 4559   4.381   5.202  11.846
 1520SOL    HW2 4560   4.249   5.297  11.829
 1521SOL     OW 4561   2.688   1.206  13.213
 1521SOL    HW1 4562   2.618   1.135  13.209
 1521SOL    HW2 4563   2.779   1.165  13.204
 1522SOL     OW 4564   0.167   6.275  12.809
 1522SOL    HW1 4565   0.173   6.185  12.766
 1522SOL    HW2 4566   0.159   6.345  12.738
 1523SOL     OW 4567   5.817   2.742  13.003
 1523SOL    HW1 4568   5.806   2.775  12.909
 1523SOL    HW2 4569   5.742   2.680  13.025
 1524SOL     OW 4570   2.170   6.186  15.618
 1524SOL    HW1 4571   2.187   6.130  15.699
 1524SOL    HW2 4572   2.222   6.149  15.541
 1525SOL     OW 4573   2.170   0.920  12.486
 1525SOL    HW1 4574   2.075   0.909  12.457
 1525SOL    HW2 4575   2.220   0.975  12.419
 1526SOL     OW 4576   1.261   2.986  15.466
 1526SOL    HW1 4577   1.333   3.017  15.404
 1526SOL    HW2 4578   1.266   3.039  15.551
 1527SOL     OW 4579   1.780   6.225  13.297
 1527SOL    HW1 4580   1.770   6.126  13.302
 1527SOL    HW2 4581   1.861   6.254  13.348
 1528SOL     OW 4582   6.238   1.390  12.882
 1528SOL    HW1 4583   6.153   1.358  12.924
 1528SOL    HW2 4584   6.218   1.467  12.821
 1529SOL     OW 4585   1.781   5.392  11.580
 1529SOL    HW1 4586   1.684   5.391  11.556
 1529SOL    HW2 4587   1.808   5.484  11.609
 1530SOL     OW 4588   5.394   5.670  15.487
 1530SOL    HW1 4589   5.464   5.600  15.480
 1530SOL    HW2 4590   5.401   5.732  15.409
 1531SOL     OW 4591   5.204   2.329  14.281
 1531SOL    HW1 4592   5.155   2.408  14.244
 1531SOL    HW2 4593   5.272   2.298  14.214
 1532SOL     OW 4594   5.239   4.044  11.712
 1532SOL    HW1 4595   5.229   4.036  11.811
 1532SOL    HW2 4596   5.149   4.058  11.671
 1533SOL     OW 4597   0.511   0.601  15.154
 1533SOL    HW1 4598   0.443   0.558  15.212
 1533SOL    HW2 4599   0.600   0.601  15.200
 1534SOL     OW 4600   5.611   0.720  14.112
 1534SOL    HW1 4601   5.594   0.687  14.019
 1534SOL    HW2 4602   5.569   0.657  14.177
 1535SOL     OW 4603   0.484   1.658  15.001
 1535SOL    HW1 4604   0.476   1.564  15.033
 1535SOL    HW2 4605   0.552   1.663  14.928
 1536SOL     OW 4606   4.026   5.533  14.393
 1536SOL    HW1 4607   4.034   5.572  14.485
 1536SOL    HW2 4608   4.115   5.500  14.363
 1537SOL     OW 4609   3.316   1.526  14.554
 1537SOL    HW1 4610   3.244   1.467  14.519
 1537SOL    HW2 4611   3.348   1.586  14.481
 1538SOL     OW 4612   1.127   5.019  15.721
 1538SOL    HW1 4613   1.144   4.943  15.658
 1538SOL    HW2 4614   1.081   4.985  15.803
 1539SOL     OW 4615   4.443   0.072  15.214
 1539SOL    HW1 4616   4.421   0.134  15.290
 1539SOL    HW2 4617   4.382  -0.007  15.217
 1540SOL     OW 4618   5.966   3.623  14.544
 1540SOL    HW1 4619   6.009   3.546  14.496
 1540SOL    HW2 4620   5.884   3.591  14.592
 1541SOL     OW 4621   5.977   2.776  14.897
 1541SOL    HW1 4622   6.031   2.764  14.980
 1541SOL    HW2 4623   6.024   2.840  14.836
 1542SOL     OW 4624   5.138   4.721  11.939
 1542SOL    HW1 4625   5.233   4.704  11.964
 1542SOL    HW2 4626   5.085   4.743  12.021
 1543SOL     OW 4627   5.214   5.954  12.747
 1543SOL    HW1 4628   5.136   5.902  12.780
 1543SOL    HW2 4629   5.283   5.960  12.819
 1544SOL     OW 4630   0.530   5.651  15.172
 1544SOL    HW1 4631   0.469   5.578  15.202
 1544SOL    HW2 4632   0.584   5.684  15.249
 1545SOL     OW 4633   5.372   3.916  12.265
 1545SOL    HW1 4634   5.292   3.931  12.207
 1545SOL    HW2 4635   5.352   3.945  12.358
 1546SOL     OW 4636   0.624   6.001  11.425
 1546SOL    HW1 4637   0.670   5.960  11.347
 1546SOL    HW2 4638   0.623   6.101  11.414
 1547SOL     OW 4639   0.130   1.593  15.260
 1547SOL    HW1 4640   0.036   1.610  15.290
 1547SOL    HW2 4641   0.192   1.650  15.314
 1548SOL     OW 4642   4.396   4.451  14.876
 1548SOL    HW1 4643   4.346   4.534  14.901
 1548SOL    HW2 4644   4.452   4.422  14.954
 1549SOL     OW 4645   2.615   0.132  12.122
 1549SOL    HW1 4646   2.585   0.041  12.148
 1549SOL    HW2 4647   2.541   0.181  12.077
 1550SOL     OW 4648   5.044   3.760  14.048
 1550SOL    HW1 4649   4.982   3.715  14.112
 1550SOL    HW2 4650   5.006   3.754  13.955
 1551SOL     OW 4651   1.637   1.830  13.281
 1551SOL    HW1 4652   1.662   1.913  13.231
 1551SOL    HW2 4653   1.692   1.754  13.250
 1552SOL     OW 4654   1.763   3.813  11.663
 1552SOL    HW1 4655   1.707   3.776  11.588
 1552SOL    HW2 4656   1.860   3.805  11.638
 1553SOL     OW 4657   5.985   5.956  14.743
 1553SOL    HW1 4658   5.991   5.861  14.772
 1553SOL    HW2 4659   5.896   5.974  14.703
 1554SOL     OW 4660   3.715   4.960  15.207
 1554SOL    HW1 4661   3.623   4.945  15.244
 1554SOL    HW2 4662   3.749   4.876  15.165
 1555SOL     OW 4663   2.981   2.146  12.051
 1555SOL    HW1 4664   2.985   2.077  12.123
 1555SOL    HW2 4665   3.055   2.131  11.985
 1556SOL     OW 4666   4.389   4.211  11.718
 1556SOL    HW1 4667   4.365   4.115  11.732
 1556SOL    HW2 4668   4.336   4.268  11.781
 1557SOL     OW 4669   0.271   6.247  11.855
 1557SOL    HW1 4670   0.353   6.236  11.911
 1557SOL    HW2 4671   0.295   6.236  11.758
 1558SOL     OW 4672   5.184   1.616  12.713
 1558SOL    HW1 4673   5.184   1.565  12.626
 1558SOL    HW2 4674   5.124   1.569  12.778
 1559SOL     OW 4675   1.163   4.207  14.301
 1559SOL    HW1 4676   1.260   4.231  14.299
 1559SOL    HW2 4677   1.108   4.290  14.299
 1560SOL     OW 4678   5.258   1.409  15.131
 1560SOL    HW1 4679   5.174   1.384  15.084
 1560SOL    HW2 4680   5.262   1.509  15.141
 1561SOL     OW 4681   2.841   1.972  11.529
 1561SOL    HW1 4682   2.837   2.018  11.618
 1561SOL    HW2 4683   2.795   1.884  11.535
 1562SOL     OW 4684   3.744   3.682  14.327
 1562SOL    HW1 4685   3.760   3.667  14.229
 1562SOL    HW2 4686   3.831   3.678  14.376
 1563SOL     OW 4687   2.871   3.891  12.287
 1563SOL    HW1 4688   2.903   3.809  12.240
 1563SOL    HW2 4689   2.809   3.942  12.226
 1564SOL     OW 4690   1.039   4.286  11.156
 1564SOL    HW1 4691   1.132   4.296  11.190
 1564SOL    HW2 4692   0.989   4.220  11.212
 1565SOL     OW 4693   2.098   0.752  11.901
 1565SOL    HW1 4694   2.132   0.659  11.910
 1565SOL    HW2 4695   2.003   0.750  11.870
 1566SOL     OW 4696   2.104   6.149  13.990
 1566SOL    HW1 4697   2.190   6.199  13.980
 1566SOL    HW2 4698   2.113   6.080  14.062
 1567SOL     OW 4699   3.541   2.742  15.575
 1567SOL    HW1 4700   3.543   2.664  15.513
 1567SOL    HW2 4701   3.519   2.711  15.667
 1568SOL     OW 4702   3.975   4.809  14.659
 1568SOL    HW1 4703   3.878   4.810  14.634
 1568SOL    HW2 4704   4.019   4.891  14.622
 1569SOL     OW 4705   1.843   0.254  13.943
 1569SOL    HW1 4706   1.925   0.200  13.924
 1569SOL    HW2 4707   1.846   0.338  13.889
 1570SOL     OW 4708   0.421   6.111  12.159
 1570SOL    HW1 4709   0.321   6.119  12.159
 1570SOL    HW2 4710   0.449   6.046  12.229
 1571SOL     OW 4711   4.706   5.573  13.751
 1571SOL    HW1 4712   4.610   5.586  13.773
 1571SOL    HW2 4713   4.740   5.653  13.701
 1572SOL     OW 4714   4.385   4.167  12.274
 1572SOL    HW1 4715   4.339   4.078  12.272
 1572SOL    HW2 4716   4.482   4.154  12.295
 1573SOL     OW 4717   0.293   1.706  15.999
 1573SOL    HW1 4718   0.216   1.770  15.996
 1573SOL    HW2 4719   0.320   1.683  15.905
 1574SOL     OW 4720   1.952   2.418  12.723
 1574SOL    HW1 4721   2.030   2.463  12.767
 1574SOL    HW2 4722   1.936   2.460  12.634
 1575SOL     OW 4723   0.244   1.829  11.072
 1575SOL    HW1 4724   0.275   1.756  11.132
 1575SOL    HW2 4725   0.170   1.795  11.014
 1576SOL     OW 4726   0.476   4.076  15.427
 1576SOL    HW1 4727   0.423   4.048  15.347
 1576SOL    HW2 4728   0.455   4.170  15.451
 1577SOL     OW 4729   2.903   3.631  12.144
 1577SOL    HW1 4730   2.831   3.564  12.128
 1577SOL    HW2 4731   2.971   3.626  12.071
 1578SOL     OW 4732   6.094   1.314  15.465
 1578SOL    HW1 4733   6.100   1.236  15.528
 1578SOL    HW2 4734   6.073   1.397  15.516
 1579SOL     OW 4735   0.126   0.408  13.268
 1579SOL    HW1 4736   0.158   0.377  13.178
 1579SOL    HW2 4737   0.187   0.371  13.339
 1580SOL     OW 4738   0.927   0.630  13.541
 1580SOL    HW1 4739   0.864   0.661  13.469
 1580SOL    HW2 4740   1.018   0.618  13.502
 1581SOL     OW 4741   5.510   2.148  15.356
 1581SOL    HW1 4742   5.422   2.116  15.320
 1581SOL    HW2 4743   5.582   2.127  15.290
 1582SOL     OW 4744   5.481   1.104  14.197
 1582SOL    HW1 4745   5.575   1.078  14.175
 1582SOL    HW2 4746   5.451   1.054  14.278
 1583SOL     OW 4747   0.363   2.514  14.312
 1583SOL    HW1 4748   0.294   2.450  14.346
 1583SOL    HW2 4749   0.392   2.575  14.386
 1584SOL     OW 4750   2.178   2.537  12.828
 1584SOL    HW1 4751   2.206   2.630  12.853
 1584SOL    HW2 4752   2.253   2.473  12.844
 1585SOL     OW 4753   4.588   1.541  12.010
 1585SOL    HW1 4754   4.493   1.512  12.025
 1585SOL    HW2 4755   4.638   1.468  11.962
 1586SOL     OW 4756   3.989   5.030  14.482
 1586SOL    HW1 4757   3.998   4.968  14.405
 1586SOL    HW2 4758   3.894   5.058  14.492
 1587SOL     OW 4759   1.183   4.955  11.506
 1587SOL    HW1 4760   1.229   5.014  11.572
 1587SOL    HW2 4761   1.143   5.012  11.434
 1588SOL     OW 4762   2.565   3.852  15.228
 1588SOL    HW1 4763   2.484   3.793  15.231
 1588SOL    HW2 4764   2.641   3.806  15.272
 1589SOL     OW 4765   5.928   0.946  12.116
 1589SOL    HW1 4766   5.874   0.888  12.054
 1589SOL    HW2 4767   5.903   1.042  12.101
 1590SOL     OW 4768   1.187   3.062  15.735
 1590SOL    HW1 4769   1.168   2.965  15.719
 1590SOL    HW2 4770   1.108   3.104  15.780
 1591SOL     OW 4771   3.787   2.783  11.457
 1591SOL    HW1 4772   3.839   2.854  11.504
 1591SOL    HW2 4773   3.802   2.791  11.359
 1592SOL     OW 4774   2.743   4.069  15.174
 1592SOL    HW1 4775   2.742   4.141  15.243
 1592SOL    HW2 4776   2.670   4.003  15.194
 1593SOL     OW 4777   2.783   4.405  11.451
 1593SOL    HW1 4778   2.778   4.474  11.378
 1593SOL    HW2 4779   2.873   4.408  11.493
 1594SOL     OW 4780   0.228   2.316  11.272
 1594SOL    HW1 4781   0.149   2.266  11.307
 1594SOL    HW2 4782   0.310   2.290  11.324
 1595SOL     OW 4783   5.048   0.684  15.609
 1595SOL    HW1 4784   5.090   0.771  15.633
 1595SOL    HW2 4785   4.949   0.691  15.616
 1596SOL     OW 4786   3.055   1.977  11.312
 1596SOL    HW1 4787   2.985   2.012  11.374
 1596SOL    HW2 4788   3.016   1.903  11.256
 1597SOL     OW 4789   5.193   1.612  13.673
 1597SOL    HW1 4790   5.112   1.556  13.659
 1597SOL    HW2 4791   5.192   1.650  13.765
 1598SOL     OW 4792   3.310   1.477  11.551
 1598SOL    HW1 4793   3.307   1.543  11.477
 1598SOL    HW2 4794   3.302   1.384  11.514
 1599SOL     OW 4795   1.162   1.933  15.730
 1599SOL    HW1 4796   1.122   1.934  15.638
 1599SOL    HW2 4797   1.213   2.017  15.745
 1600SOL     OW 4798   1.498   1.642  12.096
 1600SOL    HW1 4799   1.521   1.734  12.064
 1600SOL    HW2 4800   1.498   1.578  12.018
 1601SOL     OW 4801   4.309   3.984  14.861
 1601SOL    HW1 4802   4.304   4.082  14.846
 1601SOL    HW2 4803   4.235   3.939  14.811
 1602SOL     OW 4804   5.059   0.946  12.649
 1602SOL    HW1 4805   5.139   0.953  12.710
 1602SOL    HW2 4806   5.008   0.863  12.671
 1603SOL     OW 4807   4.694   1.195  15.655
 1603SOL    HW1 4808   4.602   1.189  15.617
 1603SOL    HW2 4809   4.746   1.113  15.631
 1604SOL     OW 4810   0.394   3.340  15.962
 1604SOL    HW1 4811   0.422   3.250  15.927
 1604SOL    HW2 4812   0.475   3.397  15.974
 1605SOL     OW 4813   0.194   1.499  11.015
 1605SOL    HW1 4814   0.208   1.401  11.024
 1605SOL    HW2 4815   0.200   1.525  10.918
 1606SOL     OW 4816   1.967   0.750  14.439
 1606SOL    HW1 4817   2.038   0.804  14.393
 1606SOL    HW2 4818   2.004   0.713  14.524
 1607SOL     OW 4819   2.764   2.447  15.322
 1607SOL    HW1 4820   2.737   2.355  15.293
 1607SOL    HW2 4821   2.684   2.497  15.354
 1608SOL     OW 4822   2.788   3.475  11.232
 1608SOL    HW1 4823   2.877   3.446  11.269
 1608SOL    HW2 4824   2.783   3.451  11.135
 1609SOL     OW 4825   4.079   1.947  13.921
 1609SOL    HW1 4826   4.007   1.918  13.983
 1609SOL    HW2 4827   4.057   2.036  13.882
 1610SOL     OW 4828   6.244   1.599  14.180
 1610SOL    HW1 4829   6.224   1.511  14.137
 1610SOL    HW2 4830   6.179   1.668  14.147
 1611SOL     OW 4831   1.229   1.375  12.608
 1611SOL    HW1 4832   1.130   1.382  12.617
 1611SOL    HW2 4833   1.252   1.338  12.518
 1612SOL     OW 4834   2.954   3.300  11.564
 1612SOL    HW1 4835   2.966   3.289  11.663
 1612SOL    HW2 4836   2.859   3.323  11.545
 1613SOL     OW 4837   5.756   2.350  13.007
 1613SOL    HW1 4838   5.819   2.285  13.049
 1613SOL    HW2 4839   5.662   2.320  13.022
 1614SOL     OW 4840   0.975   3.918  14.973
 1614SOL    HW1 4841   0.953   3.958  14.884
 1614SOL    HW2 4842   0.914   3.842  14.992
 1615SOL     OW 4843   0.925   4.824  12.651
 1615SOL    HW1 4844   0.880   4.854  12.567
 1615SOL    HW2 4845   0.881   4.868  12.729
 1616SOL     OW 4846   2.902   2.077  15.277
 1616SOL    HW1 4847   2.835   2.080  15.203
 1616SOL    HW2 4848   2.980   2.135  15.254
 1617SOL     OW 4849   4.727   3.929  11.983
 1617SOL    HW1 4850   4.681   3.981  11.912
 1617SOL    HW2 4851   4.707   3.832  11.972
 1618SOL     OW 4852   5.127   0.376  15.289
 1618SOL    HW1 4853   5.171   0.465  15.277
 1618SOL    HW2 4854   5.030   0.383  15.264
 1619SOL     OW 4855   0.649   3.373  15.691
 1619SOL    HW1 4856   0.586   3.443  15.725
 1619SOL    HW2 4857   0.736   3.415  15.668
 1620SOL     OW 4858   4.723   2.893  14.776
 1620SOL    HW1 4859   4.708   2.938  14.864
 1620SOL    HW2 4860   4.758   2.801  14.791
 1621SOL     OW 4861   5.793   6.242  12.220
 1621SOL    HW1 4862   5.696   6.221  12.232
 1621SOL    HW2 4863   5.808   6.339  12.236
 1622SOL     OW 4864   4.057   3.914  14.760
 1622SOL    HW1 4865   4.016   3.964  14.836
 1622SOL    HW2 4866   3.986   3.864  14.711
 1623SOL     OW 4867   5.336   1.804  14.539
 1623SOL    HW1 4868   5.276   1.883  14.541
 1623SOL    HW2 4869   5.326   1.752  14.624
 1624SOL     OW 4870   5.572   1.826  14.179
 1624SOL    HW1 4871   5.633   1.771  14.121
 1624SOL    HW2 4872   5.482   1.782  14.184
 1625SOL     OW 4873   0.522   0.780  14.909
 1625SOL    HW1 4874   0.507   0.735  14.997
 1625SOL    HW2 4875   0.576   0.721  14.850
 1626SOL     OW 4876   3.513   5.940  12.811
 1626SOL    HW1 4877   3.552   5.863  12.761
 1626SOL    HW2 4878   3.482   6.010  12.747
 1627SOL     OW 4879   0.148   4.535  14.265
 1627SOL    HW1 4880   0.244   4.525  14.291
 1627SOL    HW2 4881   0.112   4.619  14.305
 1628SOL     OW 4882   1.891   5.116  15.101
 1628SOL    HW1 4883   1.809   5.067  15.131
 1628SOL    HW2 4884   1.913   5.188  15.168
 1629SOL     OW 4885   4.614   4.886  11.367
 1629SOL    HW1 4886   4.666   4.827  11.429
 1629SOL    HW2 4887   4.605   4.841  11.278
 1630SOL     OW 4888   3.137   3.726  12.899
 1630SOL    HW1 4889   3.163   3.634  12.870
 1630SOL    HW2 4890   3.111   3.781  12.820
 1631SOL     OW 4891   0.758   0.643  11.817
 1631SOL    HW1 4892   0.796   0.552  11.829
 1631SOL    HW2 4893   0.800   0.687  11.737
 1632SOL     OW 4894   4.802   4.725  13.866
 1632SOL    HW1 4895   4.854   4.642  13.884
 1632SOL    HW2 4896   4.712   4.718  13.911
 1633SOL     OW 4897   1.514   5.402  11.500
 1633SOL    HW1 4898   1.486   5.316  11.458
 1633SOL    HW2 4899   1.459   5.477  11.462
 1634SOL     OW 4900   3.158   5.548  13.816
 1634SOL    HW1 4901   3.251   5.549  13.853
 1634SOL    HW2 4902   3.127   5.643  13.804
 1635SOL     OW 4903   0.969   5.429  12.574
 1635SOL    HW1 4904   1.025   5.511  12.580
 1635SOL    HW2 4905   0.921   5.427  12.487
 1636SOL     OW 4906   5.858   2.120  12.376
 1636SOL    HW1 4907   5.945   2.170  12.383
 1636SOL    HW2 4908   5.785   2.185  12.355
 1637SOL     OW 4909   1.970   0.212  11.195
 1637SOL    HW1 4910   2.013   0.224  11.285
 1637SOL    HW2 4911   1.895   0.146  11.203
 1638SOL     OW 4912   1.394   5.408  13.896
 1638SOL    HW1 4913   1.355   5.317  13.878
 1638SOL    HW2 4914   1.493   5.404  13.885
 1639SOL     OW 4915   4.120   2.517  12.013
 1639SOL    HW1 4916   4.154   2.483  12.101
 1639SOL    HW2 4917   4.092   2.439  11.956
 1640SOL     OW 4918   5.052   3.144  12.884
 1640SOL    HW1 4919   5.064   3.076  12.811
 1640SOL    HW2 4920   5.128   3.136  12.949
 1641SOL     OW 4921   1.030   4.330  11.547
 1641SOL    HW1 4922   1.046   4.403  11.613
 1641SOL    HW2 4923   0.985   4.253  11.592
 1642SOL     OW 4924   0.556   0.498  14.792
 1642SOL    HW1 4925   0.485   0.524  14.726
 1642SOL    HW2 4926   0.513   0.451  14.869
 1643SOL     OW 4927   1.219   1.885  12.017
 1643SOL    HW1 4928   1.227   1.787  11.999
 1643SOL    HW2 4929   1.309   1.928  12.009
 1644SOL     OW 4930   3.798   2.806  14.826
 1644SOL    HW1 4931   3.718   2.778  14.775
 1644SOL    HW2 4932   3.781   2.795  14.924
 1645SOL     OW 4933   2.315   5.189  14.084
 1645SOL    HW1 4934   2.242   5.208  14.019
 1645SOL    HW2 4935   2.343   5.274  14.128
 1646SOL     OW 4936   3.780   2.871  14.500
 1646SOL    HW1 4937   3.871   2.897  14.532
 1646SOL    HW2 4938   3.737   2.809  14.566
 1647SOL     OW 4939   4.647   2.575  14.527
 1647SOL    HW1 4940   4.653   2.569  14.626
 1647SOL    HW2 4941   4.649   2.482  14.488
 1648SOL     OW 4942   0.135   4.369  14.744
 1648SOL    HW1 4943   0.079   4.338  14.667
 1648SOL    HW2 4944   0.123   4.468  14.756
 1649SOL     OW 4945   5.718   2.054  15.198
 1649SOL    HW1 4946   5.748   1.963  15.228
 1649SOL    HW2 4947   5.776   2.086  15.124
 1650SOL     OW 4948   2.611   0.903  11.849
 1650SOL    HW1 4949   2.512   0.909  11.864
 1650SOL    HW2 4950   2.658   0.968  11.909
 1651SOL     OW 4951   0.508   1.542  11.760
 1651SOL    HW1 4952   0.419   1.524  11.804
 1651SOL    HW2 4953   0.531   1.467  11.699
 1652SOL     OW 4954   3.352   3.954  15.158
 1652SOL    HW1 4955   3.440   3.923  15.122
 1652SOL    HW2 4956   3.364   3.990  15.250
 1653SOL     OW 4957   4.243   2.046  14.779
 1653SOL    HW1 4958   4.275   2.018  14.689
 1653SOL    HW2 4959   4.148   2.078  14.772
 1654SOL     OW 4960   4.943   3.387  12.814
 1654SOL    HW1 4961   4.972   3.293  12.833
 1654SOL    HW2 4962   5.000   3.451  12.865
 1655SOL     OW 4963   1.518   2.409  11.778
 1655SOL    HW1 4964   1.528   2.507  11.789
 1655SOL    HW2 4965   1.480   2.390  11.687
 1656SOL     OW 4966   5.043   0.611  11.893
 1656SOL    HW1 4967   5.034   0.652  11.802
 1656SOL    HW2 4968   5.123   0.552  11.896
 1657SOL     OW 4969   1.182   2.115  12.276
 1657SOL    HW1 4970   1.101   2.062  12.300
 1657SOL    HW2 4971   1.219   2.084  12.188
 1658SOL     OW 4972   3.418   0.276  13.111
 1658SOL    HW1 4973   3.378   0.368  13.105
 1658SOL    HW2 4974   3.465   0.254  13.026
 1659SOL     OW 4975   1.630   2.057  15.085
 1659SOL    HW1 4976   1.674   1.972  15.055
 1659SOL    HW2 4977   1.642   2.127  15.014
 1660SOL     OW 4978   5.892   2.018  13.044
 1660SOL    HW1 4979   5.834   1.946  13.081
 1660SOL    HW2 4980   5.988   1.990  13.051
 1661SOL     OW 4981   1.047   3.279  14.854
 1661SOL    HW1 4982   1.040   3.348  14.782
 1661SOL    HW2 4983   1.113   3.209  14.826
 1662SOL     OW 4984   3.942   3.818  11.778
 1662SOL    HW1 4985   3.922   3.833  11.681
 1662SOL    HW2 4986   3.871   3.759  11.818
 1663SOL     OW 4987   3.933  -0.012  14.957
 1663SOL    HW1 4988   3.916   0.029  14.867
 1663SOL    HW2 4989   3.976   0.056  15.016
 1664SOL     OW 4990   4.234   4.947  11.865
 1664SOL    HW1 4991   4.219   4.996  11.952
 1664SOL    HW2 4992   4.203   4.853  11.874
 1665SOL     OW 4993   1.026   2.861  11.135
 1665SOL    HW1 4994   0.986   2.913  11.210
 1665SOL    HW2 4995   1.063   2.775  11.169
 1666SOL     OW 4996   4.247   1.708  11.939
 1666SOL    HW1 4997   4.308   1.769  11.889
 1666SOL    HW2 4998   4.293   1.621  11.954
 1667SOL     OW 4999   0.410   2.963  12.013
 1667SOL    HW1 5000   0.352   2.883  12.001
 1667SOL    HW2 5001   0.385   3.010  12.098
 1668SOL     OW 5002   5.481   5.528  11.646
 1668SOL    HW1 5003   5.396   5.475  11.640
 1668SOL    HW2 5004   5.483   5.597  11.574
 1669SOL     OW 5005   0.940   5.415  14.131
 1669SOL    HW1 5006   0.964   5.319  14.144
 1669SOL    HW2 5007   0.932   5.434  14.034
 1670SOL     OW 5008   0.599   3.737  14.816
 1670SOL    HW1 5009   0.534   3.699  14.882
 1670SOL    HW2 5010   0.556   3.742  14.726
 1671SOL     OW 5011   5.220   2.786  12.091
 1671SOL    HW1 5012   5.255   2.715  12.030
 1671SOL    HW2 5013   5.138   2.753  12.137
 1672SOL     OW 5014   1.477   3.713  15.314
 1672SOL    HW1 5015   1.560   3.737  15.264
 1672SOL    HW2 5016   1.438   3.629  15.277
 1673SOL     OW 5017   1.887   6.267  11.669
 1673SOL    HW1 5018   1.901   6.333  11.743
 1673SOL    HW2 5019   1.938   6.183  11.689
 1674SOL     OW 5020   1.642   1.852  12.291
 1674SOL    HW1 5021   1.717   1.787  12.277
 1674SOL    HW2 5022   1.554   1.805  12.277
 1675SOL     OW 5023   1.372   3.618  11.934
 1675SOL    HW1 5024   1.323   3.705  11.930
 1675SOL    HW2 5025   1.470   3.635  11.933
 1676SOL     OW 5026   5.290   2.309  12.914
 1676SOL    HW1 5027   5.344   2.226  12.899
 1676SOL    HW2 5028   5.251   2.308  13.005
 1677SOL     OW 5029   5.110   4.619  15.318
 1677SOL    HW1 5030   5.047   4.573  15.381
 1677SOL    HW2 5031   5.117   4.716  15.343
 1678SOL     OW 5032   3.921   4.413  15.792
 1678SOL    HW1 5033   3.987   4.343  15.819
 1678SOL    HW2 5034   3.969   4.498  15.769
 1679SOL     OW 5035   2.668   5.425  15.137
 1679SOL    HW1 5036   2.754   5.386  15.105
 1679SOL    HW2 5037   2.679   5.524  15.149
 1680SOL     OW 5038   6.197   5.749  14.067
 1680SOL    HW1 5039   6.112   5.752  14.121
 1680SOL    HW2 5040   6.261   5.817  14.103
 1681SOL     OW 5041   4.276   6.111  15.587
 1681SOL    HW1 5042   4.236   6.111  15.678
 1681SOL    HW2 5043   4.352   6.046  15.584
 1682SOL     OW 5044   2.768   2.247  12.595
 1682SOL    HW1 5045   2.727   2.163  12.558
 1682SOL    HW2 5046   2.737   2.326  12.541
 1683SOL     OW 5047   0.104   2.913  11.046
 1683SOL    HW1 5048   0.034   2.842  11.052
 1683SOL    HW2 5049   0.110   2.961  11.134
 1684SOL     OW 5050   2.249   5.551  13.536
 1684SOL    HW1 5051   2.331   5.605  13.553
 1684SOL    HW2 5052   2.214   5.571  13.445
 1685SOL     OW 5053   1.196   3.978  15.609
 1685SOL    HW1 5054   1.269   3.982  15.540
 1685SOL    HW2 5055   1.172   4.071  15.637
 1686SOL     OW 5056   3.698   1.310  12.595
 1686SOL    HW1 5057   3.624   1.377  12.591
 1686SOL    HW2 5058   3.733   1.292  12.503
 1687SOL     OW 5059   0.883   5.458  15.239
 1687SOL    HW1 5060   0.932   5.382  15.282
 1687SOL    HW2 5061   0.792   5.466  15.281
 1688SOL     OW 5062   1.469   5.605  13.329
 1688SOL    HW1 5063   1.549   5.625  13.272
 1688SOL    HW2 5064   1.481   5.647  13.419
 1689SOL     OW 5065   3.533   2.959  11.523
 1689SOL    HW1 5066   3.573   2.898  11.455
 1689SOL    HW2 5067   3.577   2.944  11.611
 1690SOL     OW 5068   5.681   2.687  11.386
 1690SOL    HW1 5069   5.717   2.597  11.408
 1690SOL    HW2 5070   5.598   2.678  11.332
 1691SOL     OW 5071   1.308   3.378  12.886
 1691SOL    HW1 5072   1.382   3.343  12.829
 1691SOL    HW2 5073   1.341   3.395  12.979
 1692SOL     OW 5074   3.200   3.350  15.052
 1692SOL    HW1 5075   3.142   3.427  15.025
 1692SOL    HW2 5076   3.270   3.383  15.115
 1693SOL     OW 5077   3.779   0.086  12.993
 1693SOL    HW1 5078   3.790   0.120  13.086
 1693SOL    HW2 5079   3.763  -0.012  12.995
 1694SOL     OW 5080   1.989   2.363  13.943
 1694SOL    HW1 5081   2.058   2.424  13.903
 1694SOL    HW2 5082   1.988   2.276  13.893
 1695SOL     OW 5083   5.457   2.403  12.058
 1695SOL    HW1 5084   5.429   2.487  12.104
 1695SOL    HW2 5085   5.418   2.324  12.107
 1696SOL     OW 5086   1.006   3.630  12.604
 1696SOL    HW1 5087   0.913   3.603  12.630
 1696SOL    HW2 5088   1.060   3.646  12.687
 1697SOL     OW 5089   1.738   4.039  15.163
 1697SOL    HW1 5090   1.833   4.047  15.195
 1697SOL    HW2 5091   1.678   4.081  15.230
 1698SOL     OW 5092   5.150   4.346  11.290
 1698SOL    HW1 5093   5.195   4.358  11.379
 1698SOL    HW2 5094   5.154   4.249  11.264
 1699SOL     OW 5095   0.740   4.695  13.469
 1699SOL    HW1 5096   0.717   4.639  13.389
 1699SOL    HW2 5097   0.660   4.750  13.494
 1700SOL     OW 5098   1.161   4.312  13.556
 1700SOL    HW1 5099   1.184   4.217  13.577
 1700SOL    HW2 5100   1.065   4.329  13.578
 1701SOL     OW 5101   3.407   3.513  12.047
 1701SOL    HW1 5102   3.355   3.445  11.995
 1701SOL    HW2 5103   3.394   3.603  12.004
 1702SOL     OW 5104   0.508   0.918  13.729
 1702SOL    HW1 5105   0.590   0.929  13.672
 1702SOL    HW2 5106   0.503   0.993  13.794
 1703SOL     OW 5107   5.399   5.067  13.284
 1703SOL    HW1 5108   5.431   5.082  13.377
 1703SOL    HW2 5109   5.307   5.028  13.286
 1704SOL     OW 5110   2.742   6.168  15.924
 1704SOL    HW1 5111   2.704   6.090  15.873
 1704SOL    HW2 5112   2.692   6.251  15.899
 1705SOL     OW 5113   5.592   5.397  13.942
 1705SOL    HW1 5114   5.643   5.332  13.999
 1705SOL    HW2 5115   5.631   5.488  13.953
 1706SOL     OW 5116   1.764   3.301  12.318
 1706SOL    HW1 5117   1.790   3.260  12.405
 1706SOL    HW2 5118   1.826   3.270  12.246
 1707SOL     OW 5119   1.134   5.924  15.556
 1707SOL    HW1 5120   1.118   5.859  15.482
 1707SOL    HW2 5121   1.185   6.002  15.521
 1708SOL     OW 5122   2.162   4.420  12.769
 1708SOL    HW1 5123   2.144   4.386  12.676
 1708SOL    HW2 5124   2.163   4.520  12.768
 1709SOL     OW 5125   5.690   1.676  13.965
 1709SOL    HW1 5126   5.761   1.632  13.911
 1709SOL    HW2 5127   5.614   1.701  13.905
 1710SOL     OW 5128   0.815   2.944  14.751
 1710SOL    HW1 5129   0.910   2.972  14.767
 1710SOL    HW2 5130   0.754   3.014  14.788
 1711SOL     OW 5131   1.360   0.284  15.096
 1711SOL    HW1 5132   1.368   0.287  14.996
 1711SOL    HW2 5133   1.275   0.328  15.124
 1712SOL     OW 5134   1.946   0.855  14.079
 1712SOL    HW1 5135   1.850   0.881  14.085
 1712SOL    HW2 5136   1.957   0.760  14.107
 1713SOL     OW 5137   0.084   0.768  11.605
 1713SOL    HW1 5138   0.097   0.676  11.566
 1713SOL    HW2 5139   0.046   0.828  11.535
 1714SOL     OW 5140   3.597   2.212  11.262
 1714SOL    HW1 5141   3.524   2.265  11.307
 1714SOL    HW2 5142   3.569   2.117  11.254
 1715SOL     OW 5143   3.172   5.950  13.657
 1715SOL    HW1 5144   3.120   6.034  13.640
 1715SOL    HW2 5145   3.186   5.902  13.570
 1716SOL     OW 5146   3.615   6.287  13.774
 1716SOL    HW1 5147   3.569   6.235  13.701
 1716SOL    HW2 5148   3.702   6.243  13.795
 1717SOL     OW 5149   3.872   4.658  13.038
 1717SOL    HW1 5150   3.845   4.563  13.026
 1717SOL    HW2 5151   3.972   4.664  13.042
 1718SOL     OW 5152   0.283   3.171  14.331
 1718SOL    HW1 5153   0.326   3.261  14.334
 1718SOL    HW2 5154   0.355   3.101  14.330
 1719SOL     OW 5155   4.233   5.947  12.638
 1719SOL    HW1 5156   4.199   5.984  12.552
 1719SOL    HW2 5157   4.316   5.997  12.666
 1720SOL     OW 5158   4.611   0.071  14.933
 1720SOL    HW1 5159   4.610   0.073  15.033
 1720SOL    HW2 5160   4.541   0.134  14.898
 1721SOL     OW 5161   1.912   2.960  14.139
 1721SOL    HW1 5162   1.948   2.891  14.076
 1721SOL    HW2 5163   1.885   3.041  14.087
 1722SOL     OW 5164   5.935   4.946  11.213
 1722SOL    HW1 5165   6.027   4.963  11.248
 1722SOL    HW2 5166   5.871   4.937  11.290
 1723SOL     OW 5167   5.866   1.574  14.935
 1723SOL    HW1 5168   5.958   1.585  14.973
 1723SOL    HW2 5169   5.831   1.483  14.956
 1724SOL     OW 5170   4.904   4.016  15.862
 1724SOL    HW1 5171   4.819   3.964  15.848
 1724SOL    HW2 5172   4.977   3.975  15.809
 1725SOL     OW 5173   3.097   4.243  13.168
 1725SOL    HW1 5174   3.159   4.191  13.227
 1725SOL    HW2 5175   3.017   4.187  13.148
 1726SOL     OW 5176   4.475   3.418  12.379
 1726SOL    HW1 5177   4.468   3.319  12.391
 1726SOL    HW2 5178   4.386   3.460  12.396
 1727SOL     OW 5179   2.670   4.764  15.303
 1727SOL    HW1 5180   2.741   4.714  15.352
 1727SOL    HW2 5181   2.683   4.862  15.315
 1728SOL     OW 5182   5.516   6.158  12.236
 1728SOL    HW1 5183   5.443   6.189  12.176
 1728SOL    HW2 5184   5.479   6.139  12.327
 1729SOL     OW 5185   1.029   3.061  13.525
 1729SOL    HW1 5186   0.951   3.096  13.577
 1729SOL    HW2 5187   1.045   2.965  13.550
 1730SOL     OW 5188   3.997   2.472  15.946
 1730SOL    HW1 5189   3.947   2.545  15.898
 1730SOL    HW2 5190   4.088   2.463  15.906
 1731SOL     OW 5191   1.879   4.017  12.530
 1731SOL    HW1 5192   1.814   4.065  12.589
 1731SOL    HW2 5193   1.939   4.084  12.487
 1732SOL     OW 5194   1.108   3.058  12.259
 1732SOL    HW1 5195   1.119   3.037  12.357
 1732SOL    HW2 5196   1.199   3.062  12.217
 1733SOL     OW 5197   4.541   0.429  14.847
 1733SOL    HW1 5198   4.589   0.462  14.765
 1733SOL    HW2 5199   4.447   0.461  14.845
 1734SOL     OW 5200   1.443   4.533  15.308
 1734SOL    HW1 5201   1.482   4.557  15.219
 1734SOL    HW2 5202   1.413   4.438  15.307
 1735SOL     OW 5203   0.795   4.673  12.267
 1735SOL    HW1 5204   0.822   4.638  12.356
 1735SOL    HW2 5205   0.816   4.604  12.197
 1736SOL     OW 5206   2.233   2.192  12.539
 1736SOL    HW1 5207   2.138   2.214  12.561
 1736SOL    HW2 5208   2.242   2.173  12.441
 1737SOL     OW 5209   2.486   0.678  13.578
 1737SOL    HW1 5210   2.388   0.697  13.593
 1737SOL    HW2 5211   2.530   0.662  13.666
 1738SOL     OW 5212   2.121   2.965  14.347
 1738SOL    HW1 5213   2.156   3.021  14.272
 1738SOL    HW2 5214   2.026   2.941  14.329
 1739SOL     OW 5215   4.276   1.973  14.246
 1739SOL    HW1 5216   4.201   1.907  14.243
 1739SOL    HW2 5217   4.305   1.996  14.153
 1740SOL     OW 5218   1.850   1.190  14.467
 1740SOL    HW1 5219   1.797   1.199  14.382
 1740SOL    HW2 5220   1.890   1.099  14.472
 1741SOL     OW 5221   4.052   4.446  14.233
 1741SOL    HW1 5222   4.142   4.428  14.273
 1741SOL    HW2 5223   4.020   4.363  14.186
 1742SOL     OW 5224   4.712   0.496  14.605
 1742SOL    HW1 5225   4.793   0.463  14.654
 1742SOL    HW2 5226   4.737   0.518  14.511
 1743SOL     OW 5227   0.473   5.268  15.244
 1743SOL    HW1 5228   0.549   5.238  15.187
 1743SOL    HW2 5229   0.430   5.189  15.288
 1744SOL     OW 5230   1.317   4.736  13.532
 1744SOL    HW1 5231   1.404   4.759  13.491
 1744SOL    HW2 5232   1.245   4.795  13.495
 1745SOL     OW 5233   4.940   4.175  15.095
 1745SOL    HW1 5234   5.016   4.121  15.059
 1745SOL    HW2 5235   4.918   4.248  15.030
 1746SOL     OW 5236   0.374   6.031  14.586
 1746SOL    HW1 5237   0.372   6.059  14.490
 1746SOL    HW2 5238   0.465   6.047  14.624
 1747SOL     OW 5239   3.729   0.298  14.749
 1747SOL    HW1 5240   3.662   0.275  14.819
 1747SOL    HW2 5241   3.813   0.331  14.793
 1748SOL     OW 5242   4.362   5.104  12.353
 1748SOL    HW1 5243   4.367   5.045  12.433
 1748SOL    HW2 5244   4.410   5.190  12.370
 1749SOL     OW 5245   3.934   3.740  15.742
 1749SOL    HW1 5246   3.955   3.822  15.795
 1749SOL    HW2 5247   4.017   3.684  15.733
 1750SOL     OW 5248   0.565   6.157  15.961
 1750SOL    HW1 5249   0.575   6.085  15.892
 1750SOL    HW2 5250   0.576   6.246  15.917
 1751SOL     OW 5251   1.149   6.268  12.891
 1751SOL    HW1 5252   1.190   6.356  12.911
 1751SOL    HW2 5253   1.049   6.275  12.899
 1752SOL     OW 5254   5.300   1.528  13.953
 1752SOL    HW1 5255   5.330   1.438  13.924
 1752SOL    HW2 5256   5.281   1.527  14.052
 1753SOL     OW 5257   0.775   1.357  13.592
 1753SOL    HW1 5258   0.841   1.362  13.666
 1753SOL    HW2 5259   0.682   1.370  13.628
 1754SOL     OW 5260   0.940   3.618  15.935
 1754SOL    HW1 5261   0.972   3.707  15.968
 1754SOL    HW2 5262   0.929   3.621  15.836
 1755SOL     OW 5263   5.041   1.991  11.893
 1755SOL    HW1 5264   5.102   1.924  11.851
 1755SOL    HW2 5265   4.948   1.977  11.860
 1756SOL     OW 5266   0.909   5.228  13.229
 1756SOL    HW1 5267   0.860   5.142  13.216
 1756SOL    HW2 5268   0.843   5.300  13.251
 1757SOL     OW 5269   1.310   5.573  12.168
 1757SOL    HW1 5270   1.300   5.672  12.177
 1757SOL    HW2 5271   1.407   5.549  12.168
 1758SOL     OW 5272   5.524   0.112  13.097
 1758SOL    HW1 5273   5.574   0.063  13.169
 1758SOL    HW2 5274   5.428   0.086  13.099
 1759SOL     OW 5275   6.034   0.253  11.984
 1759SOL    HW1 5276   6.079   0.186  11.925
 1759SOL    HW2 5277   6.068   0.345  11.962
 1760SOL     OW 5278   2.479   4.542  15.177
 1760SOL    HW1 5279   2.556   4.505  15.230
 1760SOL    HW2 5280   2.496   4.638  15.157
 1761SOL     OW 5281   0.792   1.964  12.252
 1761SOL    HW1 5282   0.778   1.941  12.156
 1761SOL    HW2 5283   0.725   2.032  12.281
 1762SOL     OW 5284   0.540   1.945  12.512
 1762SOL    HW1 5285   0.588   1.932  12.599
 1762SOL    HW2 5286   0.511   2.040  12.504
 1763SOL     OW 5287   2.129   3.104  13.789
 1763SOL    HW1 5288   2.130   3.004  13.789
 1763SOL    HW2 5289   2.216   3.139  13.753
 1764SOL     OW 5290   1.216   1.374  14.865
 1764SOL    HW1 5291   1.296   1.433  14.860
 1764SOL    HW2 5292   1.226   1.297  14.802
 1765SOL     OW 5293   5.782   1.724  12.974
 1765SOL    HW1 5294   5.702   1.674  12.940
 1765SOL    HW2 5295   5.827   1.771  12.899
 1766SOL     OW 5296   5.921   5.219  12.623
 1766SOL    HW1 5297   5.857   5.293  12.641
 1766SOL    HW2 5298   6.013   5.256  12.610
 1767SOL     OW 5299   4.034   5.507  14.906
 1767SOL    HW1 5300   4.108   5.444  14.883
 1767SOL    HW2 5301   4.018   5.569  14.829
 1768SOL     OW 5302   2.723   3.667  14.569
 1768SOL    HW1 5303   2.663   3.737  14.530
 1768SOL    HW2 5304   2.757   3.698  14.658
 1769SOL     OW 5305   6.254   5.606  11.215
 1769SOL    HW1 5306   6.180   5.609  11.282
 1769SOL    HW2 5307   6.219   5.571  11.129
 1770SOL     OW 5308   1.526   4.555  15.045
 1770SOL    HW1 5309   1.569   4.478  14.997
 1770SOL    HW2 5310   1.464   4.603  14.983
 1771SOL     OW 5311   4.661   0.955  13.103
 1771SOL    HW1 5312   4.637   0.982  13.009
 1771SOL    HW2 5313   4.758   0.976  13.119
 1772SOL     OW 5314   4.542   3.876  13.367
 1772SOL    HW1 5315   4.536   3.849  13.271
 1772SOL    HW2 5316   4.450   3.888  13.404
 1773SOL     OW 5317   5.499   1.739  13.755
 1773SOL    HW1 5318   5.440   1.810  13.793
 1773SOL    HW2 5319   5.444   1.666  13.715
 1774SOL     OW 5320   3.187   0.836  13.871
 1774SOL    HW1 5321   3.163   0.806  13.963
 1774SOL    HW2 5322   3.111   0.817  13.809
 1775SOL     OW 5323   0.687   2.352  11.522
 1775SOL    HW1 5324   0.763   2.316  11.468
 1775SOL    HW2 5325   0.722   2.413  11.593
 1776SOL     OW 5326   4.148   3.991  11.957
 1776SOL    HW1 5327   4.065   4.033  11.921
 1776SOL    HW2 5328   4.144   3.892  11.946
 1777SOL     OW 5329   4.292   4.857  13.842
 1777SOL    HW1 5330   4.332   4.948  13.851
 1777SOL    HW2 5331   4.213   4.860  13.781
 1778SOL     OW 5332   3.599   6.219  14.313
 1778SOL    HW1 5333   3.618   6.317  14.317
 1778SOL    HW2 5334   3.573   6.195  14.219
 1779SOL     OW 5335   5.398   4.784  12.671
 1779SOL    HW1 5336   5.384   4.725  12.591
 1779SOL    HW2 5337   5.495   4.790  12.692
 1780SOL     OW 5338   0.104   3.144  11.325
 1780SOL    HW1 5339   0.193   3.131  11.369
 1780SOL    HW2 5340   0.033   3.151  11.395
 1781SOL     OW 5341   3.767   3.483  13.397
 1781SOL    HW1 5342   3.726   3.563  13.442
 1781SOL    HW2 5343   3.821   3.514  13.319
 1782SOL     OW 5344   0.876   5.806  14.599
 1782SOL    HW1 5345   0.870   5.719  14.647
 1782SOL    HW2 5346   0.842   5.795  14.506
 1783SOL     OW 5347   0.708   4.390  15.745
 1783SOL    HW1 5348   0.740   4.421  15.656
 1783SOL    HW2 5349   0.658   4.303  15.735
 1784SOL     OW 5350   0.769   5.088  12.574
 1784SOL    HW1 5351   0.701   5.090  12.648
 1784SOL    HW2 5352   0.841   5.154  12.594
 1785SOL     OW 5353   2.070   5.883  14.845
 1785SOL    HW1 5354   1.999   5.821  14.879
 1785SOL    HW2 5355   2.146   5.830  14.808
 1786SOL     OW 5356   0.617   1.271  14.705
 1786SOL    HW1 5357   0.707   1.308  14.729
 1786SOL    HW2 5358   0.552   1.346  14.696
 1787SOL     OW 5359   5.066   2.069  13.256
 1787SOL    HW1 5360   5.143   2.017  13.293
 1787SOL    HW2 5361   5.032   2.132  13.327
 1788SOL     OW 5362   4.770   2.575  11.097
 1788SOL    HW1 5363   4.697   2.568  11.165
 1788SOL    HW2 5364   4.833   2.648  11.123
 1789SOL     OW 5365   3.239   1.399  13.589
 1789SOL    HW1 5366   3.189   1.465  13.533
 1789SOL    HW2 5367   3.335   1.398  13.561
 1790SOL     OW 5368   2.196   0.734  13.628
 1790SOL    HW1 5369   2.167   0.798  13.699
 1790SOL    HW2 5370   2.128   0.734  13.554
 1791SOL     OW 5371   3.890   6.057  14.869
 1791SOL    HW1 5372   3.894   6.145  14.917
 1791SOL    HW2 5373   3.897   5.983  14.936
 1792SOL     OW 5374   4.831   2.790  14.242
 1792SOL    HW1 5375   4.869   2.881  14.226
 1792SOL    HW2 5376   4.804   2.781  14.338
 1793SOL     OW 5377   0.039   3.756  13.941
 1793SOL    HW1 5378  -0.021   3.680  13.915
 1793SOL    HW2 5379   0.073   3.740  14.034
 1794SOL     OW 5380   6.033   4.139  12.029
 1794SOL    HW1 5381   5.943   4.102  12.053
 1794SOL    HW2 5382   6.023   4.205  11.955
 1795SOL     OW 5383   5.763   2.362  13.327
 1795SOL    HW1 5384   5.702   2.398  13.398
 1795SOL    HW2 5385   5.849   2.414  13.329
 1796SOL     OW 5386   3.387   3.152  15.616
 1796SOL    HW1 5387   3.475   3.104  15.617
 1796SOL    HW2 5388   3.313   3.086  15.626
 1797SOL     OW 5389   3.890   1.897  12.422
 1797SOL    HW1 5390   3.899   1.875  12.324
 1797SOL    HW2 5391   3.832   1.828  12.465
 1798SOL     OW 5392   5.505   0.860  13.003
 1798SOL    HW1 5393   5.576   0.791  13.014
 1798SOL    HW2 5394   5.510   0.926  13.078
 1799SOL     OW 5395   5.336   0.355  15.998
 1799SOL    HW1 5396   5.357   0.446  15.961
 1799SOL    HW2 5397   5.306   0.295  15.924
 1800SOL     OW 5398   0.469   0.185  14.959
 1800SOL    HW1 5399   0.554   0.208  15.006
 1800SOL    HW2 5400   0.469   0.088  14.935
 1801SOL     OW 5401   1.692   0.151  12.581
 1801SOL    HW1 5402   1.693   0.244  12.618
 1801SOL    HW2 5403   1.602   0.110  12.596
 1802SOL     OW 5404   2.974   2.517  15.827
 1802SOL    HW1 5405   2.994   2.433  15.877
 1802SOL    HW2 5406   2.902   2.499  15.760
 1803SOL     OW 5407   3.474   5.887  11.101
 1803SOL    HW1 5408   3.381   5.851  11.105
 1803SOL    HW2 5409   3.518   5.876  11.190
 1804SOL     OW 5410   1.664   4.622  14.376
 1804SOL    HW1 5411   1.692   4.615  14.472
 1804SOL    HW2 5412   1.676   4.533  14.332
 1805SOL     OW 5413   1.155   0.557  14.356
 1805SOL    HW1 5414   1.188   0.543  14.449
 1805SOL    HW2 5415   1.075   0.499  14.340
 1806SOL     OW 5416   5.665   3.567  14.608
 1806SOL    HW1 5417   5.631   3.498  14.544
 1806SOL    HW2 5418   5.638   3.658  14.575
 1807SOL     OW 5419   2.078   0.191  12.741
 1807SOL    HW1 5420   1.998   0.152  12.787
 1807SOL    HW2 5421   2.159   0.136  12.762
 1808SOL     OW 5422   1.146   5.671  13.954
 1808SOL    HW1 5423   1.219   5.603  13.950
 1808SOL    HW2 5424   1.069   5.634  14.006
 1809SOL     OW 5425   4.947   0.079  15.812
 1809SOL    HW1 5426   4.948   0.091  15.911
 1809SOL    HW2 5427   4.865   0.028  15.785
 1810SOL     OW 5428   4.091   1.924  13.214
 1810SOL    HW1 5429   4.040   1.932  13.129
 1810SOL    HW2 5430   4.087   2.011  13.264
 1811SOL     OW 5431   2.542   5.443  13.340
 1811SOL    HW1 5432   2.503   5.381  13.272
 1811SOL    HW2 5433   2.550   5.395  13.428
 1812SOL     OW 5434   4.686   5.392  11.277
 1812SOL    HW1 5435   4.586   5.385  11.278
 1812SOL    HW2 5436   4.725   5.311  11.320
 1813SOL     OW 5437   4.495   4.893  12.137
 1813SOL    HW1 5438   4.409   4.895  12.086
 1813SOL    HW2 5439   4.486   4.948  12.219
 1814SOL     OW 5440   4.420   3.328  11.117
 1814SOL    HW1 5441   4.377   3.355  11.204
 1814SOL    HW2 5442   4.391   3.236  11.092
 1815SOL     OW 5443   4.285   4.410  11.203
 1815SOL    HW1 5444   4.316   4.455  11.287
 1815SOL    HW2 5445   4.186   4.399  11.205
 1816SOL     OW 5446   0.375   5.035  12.159
 1816SOL    HW1 5447   0.298   5.074  12.210
 1816SOL    HW2 5448   0.341   4.994  12.074
 1817SOL     OW 5449   3.262   1.031  12.352
 1817SOL    HW1 5450   3.173   0.999  12.384
 1817SOL    HW2 5451   3.252   1.072  12.261
 1818SOL     OW 5452   3.805   0.124  13.265
 1818SOL    HW1 5453   3.715   0.099  13.301
 1818SOL    HW2 5454   3.867   0.143  13.341
 1819SOL     OW 5455   3.039   0.679  12.484
 1819SOL    HW1 5456   2.991   0.597  12.453
 1819SOL    HW2 5457   3.121   0.652  12.534
 1820SOL     OW 5458   5.187   3.903  14.303
 1820SOL    HW1 5459   5.279   3.883  14.336
 1820SOL    HW2 5460   5.177   3.870  14.209
 1821SOL     OW 5461   1.607   1.438  11.111
 1821SOL    HW1 5462   1.564   1.444  11.200
 1821SOL    HW2 5463   1.559   1.497  11.046
 1822SOL     OW 5464   1.937   5.249  14.560
 1822SOL    HW1 5465   1.859   5.186  14.566
 1822SOL    HW2 5466   1.914   5.334  14.608
 1823SOL     OW 5467   3.921   1.875  11.118
 1823SOL    HW1 5468   3.907   1.972  11.098
 1823SOL    HW2 5469   3.902   1.821  11.036
 1824SOL     OW 5470   5.077   3.039  11.943
 1824SOL    HW1 5471   5.143   2.973  11.908
 1824SOL    HW2 5472   5.084   3.124  11.891
 1825SOL     OW 5473   6.116   2.196  15.596
 1825SOL    HW1 5474   6.069   2.123  15.545
 1825SOL    HW2 5475   6.099   2.284  15.551
 1826SOL     OW 5476   3.488   5.644  14.707
 1826SOL    HW1 5477   3.486   5.585  14.627
 1826SOL    HW2 5478   3.564   5.709  14.699
 1827SOL     OW 5479   4.197   5.660  14.658
 1827SOL    HW1 5480   4.296   5.652  14.669
 1827SOL    HW2 5481   4.172   5.757  14.658
 1828SOL     OW 5482   6.105   2.510  13.481
 1828SOL    HW1 5483   6.157   2.574  13.424
 1828SOL    HW2 5484   6.159   2.426  13.493
 1829SOL     OW 5485   2.424   5.268  13.168
 1829SOL    HW1 5486   2.364   5.191  13.190
 1829SOL    HW2 5487   2.412   5.293  13.072
 1830SOL     OW 5488   2.556   5.865  11.045
 1830SOL    HW1 5489   2.579   5.776  11.086
 1830SOL    HW2 5490   2.536   5.931  11.118
 1831SOL     OW 5491   5.889   0.583  15.870
 1831SOL    HW1 5492   5.812   0.552  15.814
 1831SOL    HW2 5493   5.952   0.507  15.884
 1832SOL     OW 5494   3.397   0.617  12.059
 1832SOL    HW1 5495   3.341   0.631  12.141
 1832SOL    HW2 5496   3.345   0.562  11.993
 1833SOL     OW 5497   4.557   4.551  15.208
 1833SOL    HW1 5498   4.649   4.518  15.230
 1833SOL    HW2 5499   4.534   4.627  15.269
 1834SOL     OW 5500   0.136   3.560  12.399
 1834SOL    HW1 5501   0.204   3.496  12.435
 1834SOL    HW2 5502   0.177   3.650  12.386
 1835SOL     OW 5503   3.178   1.389  15.790
 1835SOL    HW1 5504   3.207   1.478  15.825
 1835SOL    HW2 5505   3.252   1.323  15.803
 1836SOL     OW 5506   2.667   2.014  14.926
 1836SOL    HW1 5507   2.592   2.051  14.870
 1836SOL    HW2 5508   2.654   1.916  14.938
 1837SOL     OW 5509   0.431   5.901  14.041
 1837SOL    HW1 5510   0.436   5.980  13.980
 1837SOL    HW2 5511   0.373   5.831  14.000
 1838SOL     OW 5512   4.553   1.420  15.197
 1838SOL    HW1 5513   4.465   1.447  15.236
 1838SOL    HW2 5514   4.627   1.465  15.248
 1839SOL     OW 5515   3.660   5.245  11.549
 1839SOL    HW1 5516   3.599   5.243  11.629
 1839SOL    HW2 5517   3.752   5.271  11.579
 1840SOL     OW 5518   4.208   2.107  11.664
 1840SOL    HW1 5519   4.147   2.166  11.612
 1840SOL    HW2 5520   4.169   2.015  11.670
 1841SOL     OW 5521   4.335   5.927  11.284
 1841SOL    HW1 5522   4.318   5.852  11.220
 1841SOL    HW2 5523   4.423   5.913  11.330
 1842SOL     OW 5524   0.184   4.912  11.989
 1842SOL    HW1 5525   0.099   4.919  11.938
 1842SOL    HW2 5526   0.186   4.825  12.039
 1843SOL     OW 5527   3.128   1.162  14.065
 1843SOL    HW1 5528   3.197   1.233  14.052
 1843SOL    HW2 5529   3.162   1.075  14.032
 1844SOL     OW 5530   4.110   3.051  15.637
 1844SOL    HW1 5531   4.187   3.063  15.700
 1844SOL    HW2 5532   4.134   3.088  15.548
 1845SOL     OW 5533   4.548   6.091  13.224
 1845SOL    HW1 5534   4.465   6.096  13.279
 1845SOL    HW2 5535   4.525   6.064  13.130
 1846SOL     OW 5536   4.456   1.051  15.098
 1846SOL    HW1 5537   4.468   1.148  15.077
 1846SOL    HW2 5538   4.409   1.007  15.021
 1847SOL     OW 5539   5.808   4.158  13.768
 1847SOL    HW1 5540   5.820   4.062  13.792
 1847SOL    HW2 5541   5.885   4.212  13.803
 1848SOL     OW 5542   2.851   1.837  15.422
 1848SOL    HW1 5543   2.890   1.909  15.365
 1848SOL    HW2 5544   2.799   1.878  15.497
 1849SOL     OW 5545   1.926   2.321  15.846
 1849SOL    HW1 5546   1.984   2.399  15.868
 1849SOL    HW2 5547   1.831   2.342  15.868
 1850SOL     OW 5548   0.734   3.586  11.253
 1850SOL    HW1 5549   0.696   3.539  11.333
 1850SOL    HW2 5550   0.823   3.626  11.278
 1851SOL     OW 5551   0.182   0.326  15.010
 1851SOL    HW1 5552   0.241   0.373  14.944
 1851SOL    HW2 5553   0.211   0.231  15.018
 1852SOL     OW 5554   4.774   2.913  15.067
 1852SOL    HW1 5555   4.839   2.985  15.093
 1852SOL    HW2 5556   4.799   2.827  15.112
 1853SOL     OW 5557   3.373   4.248  12.558
 1853SOL    HW1 5558   3.281   4.227  12.526
 1853SOL    HW2 5559   3.402   4.179  12.625
 1854SOL     OW 5560   5.780   4.599  15.190
 1854SOL    HW1 5561   5.754   4.667  15.121
 1854SOL    HW2 5562   5.700   4.572  15.243
 1855SOL     OW 5563   3.281   0.072  13.288
 1855SOL    HW1 5564   3.195   0.107  13.251
 1855SOL    HW2 5565   3.358   0.121  13.246
 1856SOL     OW 5566   5.909   6.285  13.099
 1856SOL    HW1 5567   5.881   6.358  13.036
 1856SOL    HW2 5568   5.939   6.205  13.045
 1857SOL     OW 5569   5.563   4.431  13.236
 1857SOL    HW1 5570   5.485   4.457  13.294
 1857SOL    HW2 5571   5.545   4.460  13.142
 1858SOL     OW 5572   3.432   4.235  12.852
 1858SOL    HW1 5573   3.388   4.264  12.938
 1858SOL    HW2 5574   3.438   4.314  12.790
 1859SOL     OW 5575   5.505   5.613  12.451
 1859SOL    HW1 5576   5.551   5.672  12.385
 1859SOL    HW2 5577   5.475   5.668  12.529
 1860SOL     OW 5578   4.217   2.733  14.230
 1860SOL    HW1 5579   4.271   2.700  14.307
 1860SOL    HW2 5580   4.156   2.806  14.262
 1861SOL     OW 5581   2.009   1.074  12.830
 1861SOL    HW1 5582   1.910   1.067  12.814
 1861SOL    HW2 5583   2.039   1.168  12.811
 1862SOL     OW 5584   2.113   6.234  14.395
 1862SOL    HW1 5585   2.033   6.262  14.344
 1862SOL    HW2 5586   2.094   6.149  14.444
 1863SOL     OW 5587   3.120   0.205  12.782
 1863SOL    HW1 5588   3.027   0.237  12.801
 1863SOL    HW2 5589   3.116   0.109  12.754
 1864SOL     OW 5590   2.822   5.775  13.532
 1864SOL    HW1 5591   2.883   5.696  13.541
 1864SOL    HW2 5592   2.730   5.750  13.564
 1865SOL     OW 5593   6.215   0.779  12.190
 1865SOL    HW1 5594   6.140   0.842  12.170
 1865SOL    HW2 5595   6.293   0.830  12.226
 1866SOL     OW 5596   3.363   2.549  14.639
 1866SOL    HW1 5597   3.356   2.453  14.665
 1866SOL    HW2 5598   3.336   2.560  14.543
 1867SOL     OW 5599   0.723   5.910  14.125
 1867SOL    HW1 5600   0.690   6.005  14.124
 1867SOL    HW2 5601   0.646   5.849  14.106
 1868SOL     OW 5602   0.181   3.273  11.050
 1868SOL    HW1 5603   0.269   3.285  11.096
 1868SOL    HW2 5604   0.114   3.239  11.115
 1869SOL     OW 5605   1.910   4.030  13.699
 1869SOL    HW1 5606   1.891   4.102  13.632
 1869SOL    HW2 5607   1.915   3.942  13.652
 1870SOL     OW 5608   1.003   5.920  14.877
 1870SOL    HW1 5609   0.965   5.836  14.838
 1870SOL    HW2 5610   0.981   5.998  14.818
 1871SOL     OW 5611   4.026   0.891  11.496
 1871SOL    HW1 5612   4.105   0.912  11.553
 1871SOL    HW2 5613   4.033   0.942  11.410
 1872SOL     OW 5614   2.386   5.973  12.181
 1872SOL    HW1 5615   2.322   5.958  12.256
 1872SOL    HW2 5616   2.378   5.898  12.115
 1873SOL     OW 5617   5.053   1.821  13.832
 1873SOL    HW1 5618   5.113   1.898  13.858
 1873SOL    HW2 5619   4.960   1.854  13.821
 1874SOL     OW 5620   3.661   2.017  15.101
 1874SOL    HW1 5621   3.574   2.065  15.110
 1874SOL    HW2 5622   3.655   1.927  15.143
 1875SOL     OW 5623   3.952   2.425  13.390
 1875SOL    HW1 5624   3.876   2.380  13.344
 1875SOL    HW2 5625   3.920   2.471  13.472
 1876SOL     OW 5626   3.604   3.708  11.366
 1876SOL    HW1 5627   3.674   3.693  11.297
 1876SOL    HW2 5628   3.518   3.736  11.322
 1877SOL     OW 5629   5.870   0.580  13.898
 1877SOL    HW1 5630   5.907   0.673  13.895
 1877SOL    HW2 5631   5.944   0.515  13.882
 1878SOL     OW 5632   2.670   1.206  15.740
 1878SOL    HW1 5633   2.741   1.156  15.791
 1878SOL    HW2 5634   2.687   1.305  15.749
 1879SOL     OW 5635   0.722   4.919  11.386
 1879SOL    HW1 5636   0.685   4.975  11.461
 1879SOL    HW2 5637   0.657   4.846  11.364
 1880SOL     OW 5638   4.308   0.238  14.250
 1880SOL    HW1 5639   4.345   0.150  14.221
 1880SOL    HW2 5640   4.343   0.310  14.190
 1881SOL     OW 5641   3.208   1.519  14.217
 1881SOL    HW1 5642   3.111   1.539  14.214
 1881SOL    HW2 5643   3.240   1.492  14.127
 1882SOL     OW 5644   1.190   2.012  11.539
 1882SOL    HW1 5645   1.279   2.057  11.528
 1882SOL    HW2 5646   1.161   1.973  11.452
 1883SOL     OW 5647   4.950   2.757  11.189
 1883SOL    HW1 5648   5.014   2.819  11.143
 1883SOL    HW2 5649   5.000   2.695  11.248
 1884SOL     OW 5650   3.717   4.327  15.094
 1884SOL    HW1 5651   3.662   4.405  15.065
 1884SOL    HW2 5652   3.732   4.330  15.192
 1885SOL     OW 5653   1.111   5.148  15.057
 1885SOL    HW1 5654   1.145   5.237  15.026
 1885SOL    HW2 5655   1.171   5.112  15.129
 1886SOL     OW 5656   1.457   0.559  12.466
 1886SOL    HW1 5657   1.408   0.628  12.414
 1886SOL    HW2 5658   1.553   0.557  12.438
 1887SOL     OW 5659   5.952   3.950  12.308
 1887SOL    HW1 5660   5.951   3.862  12.356
 1887SOL    HW2 5661   5.909   3.940  12.219
 1888SOL     OW 5662   5.157   0.359  11.299
 1888SOL    HW1 5663   5.256   0.369  11.284
 1888SOL    HW2 5664   5.141   0.310  11.384
 1889SOL     OW 5665   2.957   6.290  12.295
 1889SOL    HW1 5666   2.891   6.363  12.276
 1889SOL    HW2 5667   3.049   6.329  12.300
 1890SOL     OW 5668   6.156   6.086  13.116
 1890SOL    HW1 5669   6.127   6.169  13.164
 1890SOL    HW2 5670   6.232   6.044  13.164
 1891SOL     OW 5671   4.235   4.321  11.916
 1891SOL    HW1 5672   4.208   4.245  11.976
 1891SOL    HW2 5673   4.240   4.405  11.970
 1892SOL     OW 5674   2.112   2.260  11.865
 1892SOL    HW1 5675   2.163   2.256  11.780
 1892SOL    HW2 5676   2.137   2.183  11.924
 1893SOL     OW 5677   5.530   4.151  12.494
 1893SOL    HW1 5678   5.584   4.236  12.491
 1893SOL    HW2 5679   5.592   4.073  12.487
 1894SOL     OW 5680   3.922   2.667  15.756
 1894SOL    HW1 5681   3.896   2.614  15.676
 1894SOL    HW2 5682   3.932   2.763  15.730
 1895SOL     OW 5683   2.905   0.830  14.491
 1895SOL    HW1 5684   2.951   0.790  14.571
 1895SOL    HW2 5685   2.874   0.922  14.512
 1896SOL     OW 5686   4.752   1.504  15.673
 1896SOL    HW1 5687   4.702   1.458  15.746
 1896SOL    HW2 5688   4.808   1.437  15.623
 1897SOL     OW 5689   0.718   4.078  12.473
 1897SOL    HW1 5690   0.800   4.061  12.529
 1897SOL    HW2 5691   0.724   4.169  12.433
 1898SOL     OW 5692   4.843   2.481  15.285
 1898SOL    HW1 5693   4.920   2.418  15.275
 1898SOL    HW2 5694   4.830   2.504  15.381
 1899SOL     OW 5695   6.225   3.314  16.002
 1899SOL    HW1 5696   6.191   3.342  15.912
 1899SOL    HW2 5697   6.282   3.233  15.992
 1900SOL     OW 5698   5.201   3.936  12.500
 1900SOL    HW1 5699   5.158   3.862  12.553
 1900SOL    HW2 5700   5.168   4.024  12.533
 1901SOL     OW 5701   0.148   5.825  12.107
 1901SOL    HW1 5702   0.076   5.766  12.070
 1901SOL    HW2 5703   0.236   5.801  12.065
 1902SOL     OW 5704   2.662   2.650  12.076
 1902SOL    HW1 5705   2.612   2.734  12.056
 1902SOL    HW2 5706   2.759   2.671  12.086
 1903SOL     OW 5707   3.370   2.357  11.364
 1903SOL    HW1 5708   3.376   2.455  11.346
 1903SOL    HW2 5709   3.276   2.334  11.390
 1904SOL     OW 5710   2.884   0.483  11.939
 1904SOL    HW1 5711   2.881   0.387  11.967
 1904SOL    HW2 5712   2.914   0.539  12.015
 1905SOL     OW 5713   3.249   0.819  13.584
 1905SOL    HW1 5714   3.259   0.911  13.546
 1905SOL    HW2 5715   3.270   0.821  13.682
 1906SOL     OW 5716   2.437   0.133  11.474
 1906SOL    HW1 5717   2.499   0.130  11.396
 1906SOL    HW2 5718   2.472   0.198  11.542
 1907SOL     OW 5719   5.535   1.222  13.308
 1907SOL    HW1 5720   5.586   1.308  13.311
 1907SOL    HW2 5721   5.452   1.233  13.254
 1908SOL     OW 5722   3.023   0.742  14.724
 1908SOL    HW1 5723   3.109   0.769  14.767
 1908SOL    HW2 5724   2.981   0.667  14.775
 1909SOL     OW 5725   3.429   5.430  11.579
 1909SOL    HW1 5726   3.347   5.375  11.568
 1909SOL    HW2 5727   3.496   5.404  11.509
 1910SOL     OW 5728   4.416   4.798  14.547
 1910SOL    HW1 5729   4.348   4.838  14.486
 1910SOL    HW2 5730   4.387   4.706  14.573
 1911SOL     OW 5731   1.647   0.762  12.574
 1911SOL    HW1 5732   1.566   0.711  12.601
 1911SOL    HW2 5733   1.677   0.819  12.651
 1912SOL     OW 5734   2.323   1.281  15.140
 1912SOL    HW1 5735   2.230   1.267  15.174
 1912SOL    HW2 5736   2.371   1.343  15.201
 1913SOL     OW 5737   2.728   4.048  13.837
 1913SOL    HW1 5738   2.705   4.046  13.740
 1913SOL    HW2 5739   2.652   4.009  13.890
 1914SOL     OW 5740   2.425   6.260  13.982
 1914SOL    HW1 5741   2.485   6.197  14.032
 1914SOL    HW2 5742   2.423   6.348  14.030
 1915SOL     OW 5743   1.723   4.169  12.764
 1915SOL    HW1 5744   1.641   4.165  12.821
 1915SOL    HW2 5745   1.803   4.188  12.821
 1916SOL     OW 5746   5.505   6.127  14.683
 1916SOL    HW1 5747   5.442   6.116  14.606
 1916SOL    HW2 5748   5.501   6.047  14.742
 1917SOL     OW 5749   0.910   3.396  13.897
 1917SOL    HW1 5750   0.911   3.494  13.919
 1917SOL    HW2 5751   0.840   3.350  13.952
 1918SOL     OW 5752   0.838   5.194  11.185
 1918SOL    HW1 5753   0.896   5.114  11.200
 1918SOL    HW2 5754   0.744   5.173  11.213
 1919SOL     OW 5755   1.912   2.160  13.276
 1919SOL    HW1 5756   1.852   2.239  13.262
 1919SOL    HW2 5757   1.876   2.104  13.351
 1920SOL     OW 5758   5.689   4.693  11.033
 1920SOL    HW1 5759   5.774   4.699  11.086
 1920SOL    HW2 5760   5.612   4.719  11.091
 1921SOL     OW 5761   0.141   0.961  12.676
 1921SOL    HW1 5762   0.170   1.055  12.658
 1921SOL    HW2 5763   0.202   0.919  12.742
 1922SOL     OW 5764   1.169   4.870  12.778
 1922SOL    HW1 5765   1.093   4.824  12.733
 1922SOL    HW2 5766   1.190   4.955  12.730
 1923SOL     OW 5767   2.575   5.572  13.060
 1923SOL    HW1 5768   2.665   5.532  13.079
 1923SOL    HW2 5769   2.530   5.596  13.145
 1924SOL     OW 5770   1.515   5.213  14.439
 1924SOL    HW1 5771   1.571   5.256  14.369
 1924SOL    HW2 5772   1.497   5.118  14.413
 1925SOL     OW 5773   0.837   5.000  14.505
 1925SOL    HW1 5774   0.805   5.095  14.499
 1925SOL    HW2 5775   0.935   4.998  14.486
 1926SOL     OW 5776   4.778   4.734  11.572
 1926SOL    HW1 5777   4.711   4.709  11.641
 1926SOL    HW2 5778   4.870   4.715  11.606
 1927SOL     OW 5779   4.023   5.536  13.237
 1927SOL    HW1 5780   3.936   5.507  13.197
 1927SOL    HW2 5781   4.091   5.546  13.165
 1928SOL     OW 5782   4.878   2.992  13.788
 1928SOL    HW1 5783   4.911   2.963  13.878
 1928SOL    HW2 5784   4.779   3.001  13.790
 1929SOL     OW 5785   2.883   5.388  12.275
 1929SOL    HW1 5786   2.855   5.472  12.321
 1929SOL    HW2 5787   2.961   5.348  12.323
 1930SOL     OW 5788   1.647   1.283  12.834
 1930SOL    HW1 5789   1.655   1.288  12.734
 1930SOL    HW2 5790   1.570   1.339  12.864
 1931SOL     OW 5791   0.427   6.172  11.588
 1931SOL    HW1 5792   0.390   6.214  11.505
 1931SOL    HW2 5793   0.468   6.084  11.565
 1932SOL     OW 5794   0.224   2.376  15.259
 1932SOL    HW1 5795   0.291   2.435  15.302
 1932SOL    HW2 5796   0.207   2.296  15.317
 1933SOL     OW 5797   1.950   5.291  15.306
 1933SOL    HW1 5798   1.915   5.361  15.369
 1933SOL    HW2 5799   2.016   5.234  15.354
 1934SOL     OW 5800   2.305   5.655  14.683
 1934SOL    HW1 5801   2.356   5.588  14.737
 1934SOL    HW2 5802   2.369   5.706  14.625
 1935SOL     OW 5803   0.530   2.540  14.058
 1935SOL    HW1 5804   0.537   2.475  14.134
 1935SOL    HW2 5805   0.450   2.598  14.070
 1936SOL     OW 5806   1.933   5.048  12.474
 1936SOL    HW1 5807   1.856   5.111  12.486
 1936SOL    HW2 5808   2.019   5.097  12.488
 1937SOL     OW 5809   2.412   5.652  11.546
 1937SOL    HW1 5810   2.419   5.685  11.640
 1937SOL    HW2 5811   2.378   5.559  11.545
 1938SOL     OW 5812   4.164   4.389  15.528
 1938SOL    HW1 5813   4.136   4.298  15.499
 1938SOL    HW2 5814   4.199   4.439  15.448
 1939SOL     OW 5815   5.121   4.297  13.807
 1939SOL    HW1 5816   5.179   4.376  13.827
 1939SOL    HW2 5817   5.165   4.214  13.842
 1940SOL     OW 5818   1.216   1.377  11.868
 1940SOL    HW1 5819   1.184   1.461  11.913
 1940SOL    HW2 5820   1.238   1.309  11.937
 1941SOL     OW 5821   2.364   1.283  14.742
 1941SOL    HW1 5822   2.315   1.200  14.765
 1941SOL    HW2 5823   2.332   1.359  14.799
 1942SOL     OW 5824   6.019   4.065  12.894
 1942SOL    HW1 5825   5.936   4.026  12.934
 1942SOL    HW2 5826   6.091   3.996  12.893
 1943SOL     OW 5827   2.998   5.539  13.568
 1943SOL    HW1 5828   3.076   5.525  13.507
 1943SOL    HW2 5829   3.017   5.495  13.656
 1944SOL     OW 5830   2.913   3.264  11.841
 1944SOL    HW1 5831   2.936   3.243  11.937
 1944SOL    HW2 5832   2.824   3.225  11.819
 1945SOL     OW 5833   4.746   5.149  11.397
 1945SOL    HW1 5834   4.671   5.083  11.390
 1945SOL    HW2 5835   4.828   5.102  11.429
 1946SOL     OW 5836   6.072   3.059  11.135
 1946SOL    HW1 5837   5.980   3.048  11.098
 1946SOL    HW2 5838   6.081   3.003  11.217
 1947SOL     OW 5839   1.618   4.899  14.320
 1947SOL    HW1 5840   1.716   4.913  14.305
 1947SOL    HW2 5841   1.599   4.802  14.328
 1948SOL     OW 5842   4.336   3.072  15.802
 1948SOL    HW1 5843   4.350   3.117  15.890
 1948SOL    HW2 5844   4.424   3.062  15.755
 1949SOL     OW 5845   3.244   5.029  12.125
 1949SOL    HW1 5846   3.145   5.037  12.127
 1949SOL    HW2 5847   3.271   4.936  12.151
 1950SOL     OW 5848   3.712   4.375  11.819
 1950SOL    HW1 5849   3.645   4.304  11.839
 1950SOL    HW2 5850   3.705   4.402  11.723
 1951SOL     OW 5851   4.983   4.033  12.145
 1951SOL    HW1 5852   5.033   3.946  12.137
 1951SOL    HW2 5853   4.895   4.025  12.099
 1952SOL     OW 5854   2.642   5.303  15.643
 1952SOL    HW1 5855   2.565   5.274  15.587
 1952SOL    HW2 5856   2.705   5.227  15.657
 1953SOL     OW 5857   4.766   1.445  11.388
 1953SOL    HW1 5858   4.793   1.381  11.315
 1953SOL    HW2 5859   4.817   1.530  11.377
 1954SOL     OW 5860   3.499   1.313  13.298
 1954SOL    HW1 5861   3.574   1.373  13.272
 1954SOL    HW2 5862   3.416   1.339  13.249
 1955SOL     OW 5863   1.119   1.915  11.291
 1955SOL    HW1 5864   1.023   1.900  11.270
 1955SOL    HW2 5865   1.173   1.915  11.207
 1956SOL     OW 5866   2.388   2.134  13.573
 1956SOL    HW1 5867   2.333   2.120  13.491
 1956SOL    HW2 5868   2.481   2.162  13.547
 1957SOL     OW 5869   5.056   4.849  12.382
 1957SOL    HW1 5870   5.075   4.928  12.439
 1957SOL    HW2 5871   5.037   4.770  12.439
 1958SOL     OW 5872   2.245   1.982  13.755
 1958SOL    HW1 5873   2.308   2.032  13.696
 1958SOL    HW2 5874   2.156   1.974  13.710
 1959SOL     OW 5875   0.723   3.842  15.835
 1959SOL    HW1 5876   0.759   3.910  15.771
 1959SOL    HW2 5877   0.636   3.808  15.802
 1960SOL     OW 5878   1.775   4.091  15.613
 1960SOL    HW1 5879   1.742   4.022  15.677
 1960SOL    HW2 5880   1.862   4.062  15.574
 1961SOL     OW 5881   5.985   4.437  13.584
 1961SOL    HW1 5882   5.950   4.531  13.582
 1961SOL    HW2 5883   5.912   4.374  13.559
 1962SOL     OW 5884   0.811   5.918  11.946
 1962SOL    HW1 5885   0.831   5.840  11.887
 1962SOL    HW2 5886   0.814   6.003  11.892
 1963SOL     OW 5887   0.593   0.455  13.239
 1963SOL    HW1 5888   0.529   0.382  13.214
 1963SOL    HW2 5889   0.542   0.528  13.285
 1964SOL     OW 5890   0.882   1.910  11.819
 1964SOL    HW1 5891   0.908   1.918  11.723
 1964SOL    HW2 5892   0.965   1.897  11.875
 1965SOL     OW 5893   3.078   5.407  12.566
 1965SOL    HW1 5894   3.170   5.375  12.591
 1965SOL    HW2 5895   3.013   5.380  12.638
 1966SOL     OW 5896   4.327   1.449  12.031
 1966SOL    HW1 5897   4.253   1.472  12.094
 1966SOL    HW2 5898   4.316   1.354  12.001
 1967SOL     OW 5899   0.431   2.648  14.922
 1967SOL    HW1 5900   0.517   2.693  14.945
 1967SOL    HW2 5901   0.449   2.556  14.890
 1968SOL     OW 5902   6.024   3.534  11.200
 1968SOL    HW1 5903   6.006   3.445  11.158
 1968SOL    HW2 5904   5.981   3.538  11.290
 1969SOL     OW 5905   5.309   3.671  13.877
 1969SOL    HW1 5906   5.239   3.675  13.806
 1969SOL    HW2 5907   5.397   3.701  13.839
 1970SOL     OW 5908   2.452   1.358  14.177
 1970SOL    HW1 5909   2.546   1.349  14.212
 1970SOL    HW2 5910   2.388   1.333  14.249
 1971SOL     OW 5911   3.908   3.094  11.201
 1971SOL    HW1 5912   3.958   3.023  11.152
 1971SOL    HW2 5913   3.961   3.179  11.200
 1972SOL     OW 5914   3.186   5.473  14.873
 1972SOL    HW1 5915   3.185   5.545  14.804
 1972SOL    HW2 5916   3.273   5.474  14.921
 1973SOL     OW 5917   0.979   4.094  12.581
 1973SOL    HW1 5918   1.029   4.033  12.520
 1973SOL    HW2 5919   1.039   4.125  12.655
 1974SOL     OW 5920   3.064   2.416  15.232
 1974SOL    HW1 5921   2.972   2.452  15.243
 1974SOL    HW2 5922   3.124   2.487  15.196
 1975SOL     OW 5923   4.331   6.042  14.716
 1975SOL    HW1 5924   4.312   6.140  14.714
 1975SOL    HW2 5925   4.416   6.025  14.765
 1976SOL     OW 5926   0.901   3.424  13.334
 1976SOL    HW1 5927   0.818   3.418  13.389
 1976SOL    HW2 5928   0.969   3.360  13.369
 1977SOL     OW 5929   3.362   0.532  11.635
 1977SOL    HW1 5930   3.438   0.583  11.595
 1977SOL    HW2 5931   3.277   0.584  11.626
 1978SOL     OW 5932   0.335   1.975  13.302
 1978SOL    HW1 5933   0.398   1.904  13.333
 1978SOL    HW2 5934   0.243   1.956  13.337
 1979SOL     OW 5935   1.562   3.163  14.206
 1979SOL    HW1 5936   1.606   3.079  14.172
 1979SOL    HW2 5937   1.631   3.234  14.217
 1980SOL     OW 5938   5.784   3.875  12.075
 1980SOL    HW1 5939   5.687   3.900  12.067
 1980SOL    HW2 5940   5.795   3.778  12.056
 1981SOL     OW 5941   5.562   1.472  15.201
 1981SOL    HW1 5942   5.551   1.430  15.111
 1981SOL    HW2 5943   5.493   1.435  15.264
 1982SOL     OW 5944   4.753   5.092  12.214
 1982SOL    HW1 5945   4.702   5.054  12.137
 1982SOL    HW2 5946   4.838   5.041  12.227
 1983SOL     OW 5947   3.712   5.678  13.911
 1983SOL    HW1 5948   3.782   5.610  13.931
 1983SOL    HW2 5949   3.640   5.672  13.981
 1984SOL     OW 5950   4.405   4.031  11.077
 1984SOL    HW1 5951   4.476   4.057  11.141
 1984SOL    HW2 5952   4.315   4.054  11.115
 1985SOL     OW 5953   2.605   1.136  14.847
 1985SOL    HW1 5954   2.550   1.052  14.849
 1985SOL    HW2 5955   2.547   1.214  14.824
 1986SOL     OW 5956   4.144   3.115  15.354
 1986SOL    HW1 5957   4.125   3.021  15.326
 1986SOL    HW2 5958   4.121   3.178  15.280
 1987SOL     OW 5959   0.908   4.496  12.076
 1987SOL    HW1 5960   0.909   4.432  11.999
 1987SOL    HW2 5961   0.977   4.567  12.061
 1988SOL     OW 5962   3.740   4.383  15.363
 1988SOL    HW1 5963   3.805   4.450  15.400
 1988SOL    HW2 5964   3.681   4.350  15.437
 1989SOL     OW 5965   4.040   5.229  15.251
 1989SOL    HW1 5966   3.940   5.237  15.249
 1989SOL    HW2 5967   4.074   5.213  15.159
 1990SOL     OW 5968   1.072   1.158  14.252
 1990SOL    HW1 5969   1.046   1.082  14.192
 1990SOL    HW2 5970   1.085   1.241  14.198
 1991SOL     OW 5971   1.779   6.140  14.413
 1991SOL    HW1 5972   1.695   6.193  14.422
 1991SOL    HW2 5973   1.762   6.045  14.440
 1992SOL     OW 5974   3.797   3.430  14.588
 1992SOL    HW1 5975   3.714   3.476  14.620
 1992SOL    HW2 5976   3.775   3.336  14.562
 1993SOL     OW 5977   5.492   3.551  12.252
 1993SOL    HW1 5978   5.515   3.642  12.286
 1993SOL    HW2 5979   5.475   3.489  12.329
 1994SOL     OW 5980   0.801   4.005  15.624
 1994SOL    HW1 5981   0.765   4.067  15.554
 1994SOL    HW2 5982   0.868   3.944  15.582
 1995SOL     OW 5983   1.355   3.471  15.214
 1995SOL    HW1 5984   1.275   3.434  15.262
 1995SOL    HW2 5985   1.345   3.455  15.116
 1996SOL     OW 5986   2.780   2.512  15.612
 1996SOL    HW1 5987   2.799   2.606  15.583
 1996SOL    HW2 5988   2.805   2.449  15.538
 1997SOL     OW 5989   5.757   3.990  11.104
 1997SOL    HW1 5990   5.660   4.007  11.119
 1997SOL    HW2 5991   5.809   4.073  11.122
 1998SOL     OW 5992   3.396   2.162  13.739
 1998SOL    HW1 5993   3.311   2.128  13.778
 1998SOL    HW2 5994   3.377   2.247  13.689
 1999SOL     OW 5995   3.984   6.051  14.606
 1999SOL    HW1 5996   3.945   6.039  14.697
 1999SOL    HW2 5997   4.012   6.146  14.594
 2000SOL     OW 5998   5.093   2.474  12.342
 2000SOL    HW1 5999   5.189   2.501  12.349
 2000SOL    HW2 6000   5.083   2.377  12.362
 2001POPC   CN1 6001   4.830   6.287   5.248
 2001POPC   CN2 6002   4.998   6.318   5.408
 2001POPC   CN3 6003   5.032   6.406   5.190
 2001POPC   NTM 6004   4.975   6.293   5.264
 2001POPC    CA 6005   5.029   6.162   5.219
 2001POPC    CB 6006   5.180   6.131   5.225
 2001POPC    OA 6007   5.230   6.145   5.355
 2001POPC     P 6008   5.370   6.217   5.360
 2001POPC    OB 6009   5.323   6.355   5.339
 2001POPC    OC 6010   5.438   6.152   5.247
 2001POPC    OD 6011   5.412   6.190   5.510
 2001POPC    CC 6012   5.363   6.076   5.583
 2001POPC    CD 6013   5.236   6.102   5.667
 2001POPC    OE 6014   5.258   6.172   5.791
 2001POPC   C1A 6015   5.157   6.241   5.845
 2001POPC    OF 6016   5.054   6.263   5.781
 2001POPC   C1B 6017   5.197   6.300   5.974
 2001POPC   C1C 6018   5.086   6.311   6.078
 2001POPC   C1D 6019   5.038   6.179   6.140
 2001POPC   C1E 6020   4.967   6.220   6.269
 2001POPC   C1F 6021   4.887   6.116   6.348
 2001POPC   C1G 6022   4.823   6.196   6.461
 2001POPC   C1H 6023   4.723   6.120   6.549
 2001POPC   C1I 6024   4.645   6.222   6.632
 2001POPC   C1J 6025   4.657   6.234   6.764
 2001POPC   C1K 6026   4.750   6.143   6.844
 2001POPC   C1L 6027   4.702   6.121   6.988
 2001POPC   C1M 6028   4.599   6.008   7.002
 2001POPC   C1N 6029   4.596   5.948   7.143
 2001POPC   C1O 6030   4.558   6.047   7.254
 2001POPC   C1P 6031   4.535   5.980   7.390
 2001POPC   C1Q 6032   4.657   5.906   7.444
 2001POPC   C1R 6033   4.639   5.866   7.591
 2001POPC    CE 6034   5.163   5.967   5.685
 2001POPC    OG 6035   5.225   5.866   5.766
 2001POPC   C2A 6036   5.164   5.835   5.880
 2001POPC    OH 6037   5.044   5.860   5.896
 2001POPC   C2B 6038   5.243   5.745   5.967
 2001POPC   C2C 6039   5.288   5.813   6.096
 2001POPC   C2D 6040   5.371   5.718   6.182
 2001POPC   C2E 6041   5.413   5.779   6.316
 2001POPC   C2F 6042   5.477   5.674   6.407
 2001POPC   C2G 6043   5.494   5.725   6.551
 2001POPC   C2H 6044   5.508   5.606   6.646
 2001POPC   C2I 6045   5.471   5.639   6.791
 2001POPC   C2J 6046   5.585   5.696   6.876
 2001POPC   C2K 6047   5.538   5.713   7.020
 2001POPC   C2L 6048   5.655   5.714   7.118
 2001POPC   C2M 6049   5.605   5.720   7.263
 2001POPC   C2N 6050   5.716   5.684   7.362
 2001POPC   C2O 6051   5.664   5.690   7.505
 2001POPC   C2P 6052   5.767   5.638   7.606
 2002POPC   CN1 6053   0.516   4.443   5.274
 2002POPC   CN2 6054   0.401   4.579   5.425
 2002POPC   CN3 6055   0.375   4.622   5.192
 2002POPC   NTM 6056   0.471   4.581   5.296
 2002POPC    CA 6057   0.590   4.669   5.305
 2002POPC    CB 6058   0.573   4.823   5.289
 2002POPC    OA 6059   0.458   4.868   5.358
 2002POPC     P 6060   0.435   5.024   5.366
 2002POPC    OB 6061   0.320   5.034   5.275
 2002POPC    OC 6062   0.564   5.083   5.332
 2002POPC    OD 6063   0.398   5.036   5.518
 2002POPC    CC 6064   0.494   4.992   5.616
 2002POPC    CD 6065   0.461   4.855   5.678
 2002POPC    OE 6066   0.346   4.856   5.766
 2002POPC   C1A 6067   0.266   4.750   5.769
 2002POPC    OF 6068   0.277   4.664   5.681
 2002POPC   C1B 6069   0.153   4.766   5.862
 2002POPC   C1C 6070   0.122   4.639   5.942
 2002POPC   C1D 6071   0.219   4.620   6.059
 2002POPC   C1E 6072   0.170   4.502   6.144
 2002POPC   C1F 6073   0.237   4.499   6.281
 2002POPC   C1G 6074   0.158   4.401   6.369
 2002POPC   C1H 6075   0.202   4.400   6.515
 2002POPC   C1I 6076   0.102   4.311   6.589
 2002POPC   C1J 6077   0.088   4.303   6.721
 2002POPC   C1K 6078   0.176   4.380   6.819
 2002POPC   C1L 6079   0.145   4.324   6.958
 2002POPC   C1M 6080   0.240   4.376   7.066
 2002POPC   C1N 6081   0.226   4.297   7.197
 2002POPC   C1O 6082   0.086   4.307   7.257
 2002POPC   C1P 6083   0.080   4.261   7.404
 2002POPC   C1Q 6084   0.172   4.345   7.494
 2002POPC   C1R 6085   0.160   4.301   7.640
 2002POPC    CE 6086   0.590   4.792   5.735
 2002POPC    OG 6087   0.652   4.856   5.846
 2002POPC   C2A 6088   0.633   4.798   5.965
 2002POPC    OH 6089   0.583   4.686   5.974
 2002POPC   C2B 6090   0.693   4.875   6.076
 2002POPC   C2C 6091   0.608   4.869   6.203
 2002POPC   C2D 6092   0.668   4.959   6.312
 2002POPC   C2E 6093   0.582   4.953   6.438
 2002POPC   C2F 6094   0.634   5.048   6.546
 2002POPC   C2G 6095   0.545   5.039   6.669
 2002POPC   C2H 6096   0.587   5.138   6.778
 2002POPC   C2I 6097   0.488   5.129   6.894
 2002POPC   C2J 6098   0.516   5.233   7.003
 2002POPC   C2K 6099   0.406   5.225   7.109
 2002POPC   C2L 6100   0.423   5.332   7.216
 2002POPC   C2M 6101   0.307   5.326   7.315
 2002POPC   C2N 6102   0.321   5.433   7.423
 2002POPC   C2O 6103   0.203   5.426   7.520
 2002POPC   C2P 6104   0.216   5.532   7.630
 2003POPC   CN1 6105   5.060   2.178   5.287
 2003POPC   CN2 6106   5.087   1.978   5.408
 2003POPC   CN3 6107   5.109   1.968   5.175
 2003POPC   NTM 6108   5.034   2.033   5.283
 2003POPC    CA 6109   4.888   2.011   5.271
 2003POPC    CB 6110   4.831   1.869   5.250
 2003POPC    OA 6111   4.870   1.782   5.354
 2003POPC     P 6112   4.764   1.667   5.382
 2003POPC    OB 6113   4.794   1.571   5.274
 2003POPC    OC 6114   4.642   1.750   5.380
 2003POPC    OD 6115   4.806   1.632   5.529
 2003POPC    CC 6116   4.762   1.723   5.631
 2003POPC    CD 6117   4.864   1.831   5.674
 2003POPC    OE 6118   4.957   1.787   5.775
 2003POPC   C1A 6119   5.078   1.842   5.778
 2003POPC    OF 6120   5.114   1.920   5.689
 2003POPC   C1B 6121   5.158   1.797   5.893
 2003POPC   C1C 6122   5.251   1.906   5.945
 2003POPC   C1D 6123   5.231   1.924   6.095
 2003POPC   C1E 6124   5.355   1.988   6.157
 2003POPC   C1F 6125   5.337   2.004   6.308
 2003POPC   C1G 6126   5.470   2.042   6.374
 2003POPC   C1H 6127   5.447   2.073   6.521
 2003POPC   C1I 6128   5.578   2.099   6.596
 2003POPC   C1J 6129   5.580   2.079   6.727
 2003POPC   C1K 6130   5.450   2.032   6.795
 2003POPC   C1L 6131   5.437   2.078   6.940
 2003POPC   C1M 6132   5.409   2.228   6.954
 2003POPC   C1N 6133   5.383   2.269   7.100
 2003POPC   C1O 6134   5.511   2.272   7.183
 2003POPC   C1P 6135   5.486   2.308   7.330
 2003POPC   C1Q 6136   5.408   2.199   7.404
 2003POPC   C1R 6137   5.417   2.220   7.556
 2003POPC    CE 6138   4.788   1.959   5.711
 2003POPC    OG 6139   4.707   1.960   5.830
 2003POPC   C2A 6140   4.765   2.003   5.942
 2003POPC    OH 6141   4.869   2.071   5.937
 2003POPC   C2B 6142   4.677   1.989   6.060
 2003POPC   C2C 6143   4.753   1.952   6.187
 2003POPC   C2D 6144   4.657   1.930   6.305
 2003POPC   C2E 6145   4.736   1.889   6.429
 2003POPC   C2F 6146   4.649   1.861   6.551
 2003POPC   C2G 6147   4.743   1.818   6.664
 2003POPC   C2H 6148   4.674   1.782   6.796
 2003POPC   C2I 6149   4.781   1.733   6.894
 2003POPC   C2J 6150   4.721   1.694   7.029
 2003POPC   C2K 6151   4.823   1.630   7.124
 2003POPC   C2L 6152   4.750   1.594   7.253
 2003POPC   C2M 6153   4.832   1.520   7.359
 2003POPC   C2N 6154   4.740   1.492   7.478
 2003POPC   C2O 6155   4.806   1.408   7.586
 2003POPC   C2P 6156   4.707   1.377   7.698
 2004POPC   CN1 6157   0.699   1.986   5.250
 2004POPC   CN2 6158   0.533   2.074   5.386
 2004POPC   CN3 6159   0.500   2.067   5.149
 2004POPC   NTM 6160   0.597   2.090   5.256
 2004POPC    CA 6161   0.649   2.228   5.241
 2004POPC    CB 6162   0.548   2.344   5.248
 2004POPC    OA 6163   0.505   2.377   5.380
 2004POPC     P 6164   0.361   2.445   5.380
 2004POPC    OB 6165   0.281   2.327   5.349
 2004POPC    OC 6166   0.386   2.543   5.273
 2004POPC    OD 6167   0.356   2.503   5.526
 2004POPC    CC 6168   0.422   2.441   5.638
 2004POPC    CD 6169   0.382   2.304   5.696
 2004POPC    OE 6170   0.268   2.308   5.787
 2004POPC   C1A 6171   0.222   2.194   5.841
 2004POPC    OF 6172   0.276   2.088   5.812
 2004POPC   C1B 6173   0.102   2.211   5.926
 2004POPC   C1C 6174   0.057   2.083   5.998
 2004POPC   C1D 6175   0.139   2.053   6.124
 2004POPC   C1E 6176   0.087   1.923   6.186
 2004POPC   C1F 6177   0.143   1.895   6.326
 2004POPC   C1G 6178   0.094   1.757   6.371
 2004POPC   C1H 6179   0.112   1.736   6.521
 2004POPC   C1I 6180   0.087   1.591   6.562
 2004POPC   C1J 6181   0.071   1.559   6.690
 2004POPC   C1K 6182   0.077   1.670   6.795
 2004POPC   C1L 6183   0.019   1.638   6.933
 2004POPC   C1M 6184   0.088   1.519   7.001
 2004POPC   C1N 6185   0.134   1.548   7.144
 2004POPC   C1O 6186   0.019   1.567   7.243
 2004POPC   C1P 6187   0.076   1.568   7.385
 2004POPC   C1Q 6188  -0.035   1.568   7.490
 2004POPC   C1R 6189   0.022   1.562   7.631
 2004POPC    CE 6190   0.514   2.248   5.754
 2004POPC    OG 6191   0.584   2.323   5.855
 2004POPC   C2A 6192   0.547   2.297   5.980
 2004POPC    OH 6193   0.473   2.203   6.006
 2004POPC   C2B 6194   0.609   2.382   6.085
 2004POPC   C2C 6195   0.500   2.406   6.190
 2004POPC   C2D 6196   0.548   2.399   6.335
 2004POPC   C2E 6197   0.424   2.388   6.423
 2004POPC   C2F 6198   0.458   2.405   6.571
 2004POPC   C2G 6199   0.331   2.402   6.656
 2004POPC   C2H 6200   0.365   2.451   6.796
 2004POPC   C2I 6201   0.242   2.468   6.884
 2004POPC   C2J 6202   0.281   2.545   7.009
 2004POPC   C2K 6203   0.161   2.567   7.101
 2004POPC   C2L 6204   0.201   2.650   7.222
 2004POPC   C2M 6205   0.085   2.659   7.321
 2004POPC   C2N 6206   0.129   2.733   7.448
 2004POPC   C2O 6207   0.022   2.719   7.556
 2004POPC   C2P 6208   0.064   2.789   7.685
 2005POPC   CN1 6209   1.670   5.047   5.157
 2005POPC   CN2 6210   1.599   5.074   5.382
 2005POPC   CN3 6211   1.442   5.010   5.216
 2005POPC   NTM 6212   1.560   5.095   5.241
 2005POPC    CA 6213   1.541   5.239   5.213
 2005POPC    CB 6214   1.409   5.309   5.250
 2005POPC    OA 6215   1.374   5.284   5.384
 2005POPC     P 6216   1.218   5.294   5.408
 2005POPC    OB 6217   1.174   5.192   5.312
 2005POPC    OC 6218   1.197   5.437   5.379
 2005POPC    OD 6219   1.212   5.254   5.559
 2005POPC    CC 6220   1.310   5.308   5.648
 2005POPC    CD 6221   1.412   5.202   5.695
 2005POPC    OE 6222   1.353   5.108   5.787
 2005POPC   C1A 6223   1.391   4.981   5.781
 2005POPC    OF 6224   1.475   4.945   5.698
 2005POPC   C1B 6225   1.300   4.895   5.860
 2005POPC   C1C 6226   1.367   4.791   5.950
 2005POPC   C1D 6227   1.416   4.849   6.083
 2005POPC   C1E 6228   1.447   4.730   6.173
 2005POPC   C1F 6229   1.498   4.764   6.312
 2005POPC   C1G 6230   1.521   4.630   6.381
 2005POPC   C1H 6231   1.558   4.640   6.529
 2005POPC   C1I 6232   1.584   4.498   6.579
 2005POPC   C1J 6233   1.548   4.459   6.701
 2005POPC   C1K 6234   1.484   4.559   6.797
 2005POPC   C1L 6235   1.483   4.512   6.943
 2005POPC   C1M 6236   1.621   4.468   6.993
 2005POPC   C1N 6237   1.654   4.513   7.135
 2005POPC   C1O 6238   1.568   4.453   7.245
 2005POPC   C1P 6239   1.620   4.509   7.378
 2005POPC   C1Q 6240   1.544   4.458   7.500
 2005POPC   C1R 6241   1.604   4.519   7.627
 2005POPC    CE 6242   1.538   5.275   5.746
 2005POPC    OG 6243   1.515   5.359   5.859
 2005POPC   C2A 6244   1.547   5.305   5.977
 2005POPC    OH 6245   1.636   5.221   5.985
 2005POPC   C2B 6246   1.483   5.376   6.090
 2005POPC   C2C 6247   1.498   5.304   6.224
 2005POPC   C2D 6248   1.428   5.386   6.332
 2005POPC   C2E 6249   1.442   5.318   6.468
 2005POPC   C2F 6250   1.350   5.384   6.570
 2005POPC   C2G 6251   1.354   5.307   6.701
 2005POPC   C2H 6252   1.233   5.340   6.788
 2005POPC   C2I 6253   1.233   5.256   6.915
 2005POPC   C2J 6254   1.102   5.278   6.993
 2005POPC   C2K 6255   1.109   5.215   7.132
 2005POPC   C2L 6256   0.989   5.259   7.215
 2005POPC   C2M 6257   1.004   5.213   7.360
 2005POPC   C2N 6258   0.896   5.275   7.448
 2005POPC   C2O 6259   0.920   5.240   7.595
 2005POPC   C2P 6260   0.820   5.313   7.686
 2006POPC   CN1 6261   3.983   5.618   5.315
 2006POPC   CN2 6262   4.104   5.435   5.396
 2006POPC   CN3 6263   4.143   5.507   5.176
 2006POPC   NTM 6264   4.038   5.488   5.276
 2006POPC    CA 6265   3.929   5.403   5.220
 2006POPC    CB 6266   3.945   5.252   5.192
 2006POPC    OA 6267   3.908   5.167   5.300
 2006POPC     P 6268   4.017   5.053   5.324
 2006POPC    OB 6269   4.144   5.123   5.305
 2006POPC    OC 6270   3.984   4.953   5.222
 2006POPC    OD 6271   3.988   4.999   5.467
 2006POPC    CC 6272   3.920   5.076   5.568
 2006POPC    CD 6273   3.978   5.200   5.638
 2006POPC    OE 6274   4.093   5.168   5.719
 2006POPC   C1A 6275   4.174   5.269   5.748
 2006POPC    OF 6276   4.178   5.364   5.668
 2006POPC   C1B 6277   4.269   5.238   5.856
 2006POPC   C1C 6278   4.298   5.363   5.939
 2006POPC   C1D 6279   4.210   5.386   6.061
 2006POPC   C1E 6280   4.281   5.491   6.146
 2006POPC   C1F 6281   4.225   5.503   6.288
 2006POPC   C1G 6282   4.319   5.590   6.370
 2006POPC   C1H 6283   4.277   5.598   6.517
 2006POPC   C1I 6284   4.371   5.690   6.596
 2006POPC   C1J 6285   4.398   5.668   6.724
 2006POPC   C1K 6286   4.337   5.550   6.800
 2006POPC   C1L 6287   4.392   5.529   6.941
 2006POPC   C1M 6288   4.375   5.652   7.030
 2006POPC   C1N 6289   4.386   5.625   7.180
 2006POPC   C1O 6290   4.512   5.551   7.225
 2006POPC   C1P 6291   4.536   5.563   7.376
 2006POPC   C1Q 6292   4.417   5.518   7.461
 2006POPC   C1R 6293   4.443   5.540   7.610
 2006POPC    CE 6294   3.867   5.280   5.710
 2006POPC    OG 6295   3.798   5.225   5.823
 2006POPC   C2A 6296   3.818   5.282   5.942
 2006POPC    OH 6297   3.874   5.391   5.949
 2006POPC   C2B 6298   3.751   5.208   6.051
 2006POPC   C2C 6299   3.777   5.237   6.199
 2006POPC   C2D 6300   3.720   5.120   6.280
 2006POPC   C2E 6301   3.747   5.134   6.430
 2006POPC   C2F 6302   3.745   5.000   6.505
 2006POPC   C2G 6303   3.775   5.020   6.654
 2006POPC   C2H 6304   3.795   4.888   6.728
 2006POPC   C2I 6305   3.833   4.910   6.875
 2006POPC   C2J 6306   3.839   4.780   6.955
 2006POPC   C2K 6307   3.905   4.797   7.092
 2006POPC   C2L 6308   3.876   4.677   7.181
 2006POPC   C2M 6309   3.965   4.673   7.305
 2006POPC   C2N 6310   3.921   4.564   7.403
 2006POPC   C2O 6311   4.024   4.548   7.515
 2006POPC   C2P 6312   3.978   4.451   7.624
 2007POPC   CN1 6313   3.319   1.036   5.215
 2007POPC   CN2 6314   3.267   1.192   5.384
 2007POPC   CN3 6315   3.184   1.222   5.161
 2007POPC   NTM 6316   3.299   1.179   5.240
 2007POPC    CA 6317   3.421   1.253   5.199
 2007POPC    CB 6318   3.433   1.405   5.221
 2007POPC    OA 6319   3.429   1.439   5.357
 2007POPC     P 6320   3.442   1.594   5.381
 2007POPC    OB 6321   3.315   1.643   5.325
 2007POPC    OC 6322   3.566   1.625   5.307
 2007POPC    OD 6323   3.454   1.598   5.538
 2007POPC    CC 6324   3.547   1.508   5.602
 2007POPC    CD 6325   3.478   1.394   5.682
 2007POPC    OE 6326   3.418   1.436   5.806
 2007POPC   C1A 6327   3.327   1.355   5.859
 2007POPC    OF 6328   3.271   1.270   5.789
 2007POPC   C1B 6329   3.288   1.400   5.995
 2007POPC   C1C 6330   3.212   1.298   6.078
 2007POPC   C1D 6331   3.300   1.191   6.142
 2007POPC   C1E 6332   3.214   1.111   6.240
 2007POPC   C1F 6333   3.301   1.034   6.338
 2007POPC   C1G 6334   3.215   0.966   6.444
 2007POPC   C1H 6335   3.306   0.907   6.552
 2007POPC   C1I 6336   3.225   0.831   6.657
 2007POPC   C1J 6337   3.243   0.861   6.785
 2007POPC   C1K 6338   3.340   0.972   6.825
 2007POPC   C1L 6339   3.391   0.958   6.969
 2007POPC   C1M 6340   3.506   0.858   6.985
 2007POPC   C1N 6341   3.573   0.866   7.122
 2007POPC   C1O 6342   3.475   0.844   7.238
 2007POPC   C1P 6343   3.542   0.799   7.367
 2007POPC   C1Q 6344   3.627   0.904   7.437
 2007POPC   C1R 6345   3.681   0.847   7.569
 2007POPC    CE 6346   3.575   1.274   5.700
 2007POPC    OG 6347   3.694   1.282   5.779
 2007POPC   C2A 6348   3.690   1.233   5.904
 2007POPC    OH 6349   3.588   1.183   5.950
 2007POPC   C2B 6350   3.821   1.242   5.973
 2007POPC   C2C 6351   3.808   1.263   6.124
 2007POPC   C2D 6352   3.922   1.350   6.181
 2007POPC   C2E 6353   3.903   1.371   6.332
 2007POPC   C2F 6354   3.974   1.493   6.390
 2007POPC   C2G 6355   3.945   1.500   6.540
 2007POPC   C2H 6356   4.002   1.621   6.614
 2007POPC   C2I 6357   3.973   1.605   6.764
 2007POPC   C2J 6358   4.018   1.721   6.854
 2007POPC   C2K 6359   3.992   1.680   6.999
 2007POPC   C2L 6360   4.024   1.784   7.107
 2007POPC   C2M 6361   4.013   1.715   7.243
 2007POPC   C2N 6362   4.046   1.803   7.364
 2007POPC   C2O 6363   4.044   1.718   7.492
 2007POPC   C2P 6364   4.091   1.798   7.613
 2008POPC   CN1 6365   1.734   2.334   5.442
 2008POPC   CN2 6366   1.506   2.298   5.485
 2008POPC   CN3 6367   1.587   2.273   5.262
 2008POPC   NTM 6368   1.600   2.352   5.385
 2008POPC    CA 6369   1.575   2.496   5.363
 2008POPC    CB 6370   1.460   2.540   5.269
 2008POPC    OA 6371   1.329   2.491   5.301
 2008POPC     P 6372   1.232   2.602   5.366
 2008POPC    OB 6373   1.106   2.558   5.303
 2008POPC    OC 6374   1.301   2.726   5.331
 2008POPC    OD 6375   1.259   2.550   5.511
 2008POPC    CC 6376   1.328   2.632   5.607
 2008POPC    CD 6377   1.383   2.549   5.725
 2008POPC    OE 6378   1.280   2.491   5.808
 2008POPC   C1A 6379   1.291   2.363   5.841
 2008POPC    OF 6380   1.361   2.292   5.769
 2008POPC   C1B 6381   1.189   2.319   5.939
 2008POPC   C1C 6382   1.242   2.238   6.058
 2008POPC   C1D 6383   1.142   2.237   6.174
 2008POPC   C1E 6384   1.175   2.142   6.290
 2008POPC   C1F 6385   1.290   2.176   6.386
 2008POPC   C1G 6386   1.307   2.061   6.487
 2008POPC   C1H 6387   1.410   2.088   6.597
 2008POPC   C1I 6388   1.429   1.969   6.692
 2008POPC   C1J 6389   1.380   1.965   6.816
 2008POPC   C1K 6390   1.301   2.080   6.879
 2008POPC   C1L 6391   1.275   2.064   7.030
 2008POPC   C1M 6392   1.405   2.053   7.112
 2008POPC   C1N 6393   1.391   2.084   7.261
 2008POPC   C1O 6394   1.309   1.981   7.340
 2008POPC   C1P 6395   1.332   1.995   7.491
 2008POPC   C1Q 6396   1.283   2.127   7.550
 2008POPC   C1R 6397   1.320   2.139   7.698
 2008POPC    CE 6398   1.494   2.627   5.799
 2008POPC    OG 6399   1.459   2.737   5.884
 2008POPC   C2A 6400   1.481   2.717   6.014
 2008POPC    OH 6401   1.544   2.617   6.052
 2008POPC   C2B 6402   1.435   2.829   6.101
 2008POPC   C2C 6403   1.486   2.816   6.245
 2008POPC   C2D 6404   1.433   2.923   6.343
 2008POPC   C2E 6405   1.284   2.912   6.378
 2008POPC   C2F 6406   1.259   2.979   6.514
 2008POPC   C2G 6407   1.126   2.948   6.585
 2008POPC   C2H 6408   1.144   2.996   6.729
 2008POPC   C2I 6409   1.030   2.974   6.830
 2008POPC   C2J 6410   1.079   3.024   6.967
 2008POPC   C2K 6411   0.964   3.059   7.062
 2008POPC   C2L 6412   1.014   3.117   7.194
 2008POPC   C2M 6413   0.898   3.183   7.269
 2008POPC   C2N 6414   0.921   3.192   7.420
 2008POPC   C2O 6415   0.790   3.231   7.490
 2008POPC   C2P 6416   0.791   3.196   7.639
 2009POPC   CN1 6417   2.507   3.945   5.305
 2009POPC   CN2 6418   2.412   3.762   5.419
 2009POPC   CN3 6419   2.503   3.734   5.199
 2009POPC   NTM 6420   2.430   3.823   5.286
 2009POPC    CA 6421   2.305   3.834   5.207
 2009POPC    CB 6422   2.168   3.844   5.274
 2009POPC    OA 6423   2.151   3.970   5.335
 2009POPC     P 6424   2.028   3.973   5.438
 2009POPC    OB 6425   1.952   3.853   5.398
 2009POPC    OC 6426   2.006   4.104   5.376
 2009POPC    OD 6427   2.152   3.952   5.533
 2009POPC    CC 6428   2.192   4.067   5.608
 2009POPC    CD 6429   2.321   4.045   5.689
 2009POPC    OE 6430   2.294   4.007   5.825
 2009POPC   C1A 6431   2.313   3.880   5.855
 2009POPC    OF 6432   2.374   3.807   5.776
 2009POPC   C1B 6433   2.250   3.845   5.984
 2009POPC   C1C 6434   2.342   3.838   6.107
 2009POPC   C1D 6435   2.410   3.965   6.160
 2009POPC   C1E 6436   2.468   3.938   6.300
 2009POPC   C1F 6437   2.600   3.859   6.300
 2009POPC   C1G 6438   2.622   3.776   6.427
 2009POPC   C1H 6439   2.620   3.852   6.560
 2009POPC   C1I 6440   2.608   3.751   6.675
 2009POPC   C1J 6441   2.611   3.782   6.805
 2009POPC   C1K 6442   2.630   3.926   6.854
 2009POPC   C1L 6443   2.672   3.936   7.001
 2009POPC   C1M 6444   2.810   4.003   7.015
 2009POPC   C1N 6445   2.841   4.063   7.153
 2009POPC   C1O 6446   2.830   3.964   7.270
 2009POPC   C1P 6447   2.896   4.014   7.399
 2009POPC   C1Q 6448   2.828   4.138   7.458
 2009POPC   C1R 6449   2.898   4.180   7.588
 2009POPC    CE 6450   2.416   4.165   5.674
 2009POPC    OG 6451   2.408   4.279   5.761
 2009POPC   C2A 6452   2.476   4.266   5.876
 2009POPC    OH 6453   2.573   4.190   5.877
 2009POPC   C2B 6454   2.460   4.377   5.973
 2009POPC   C2C 6455   2.454   4.326   6.117
 2009POPC   C2D 6456   2.451   4.437   6.223
 2009POPC   C2E 6457   2.402   4.384   6.358
 2009POPC   C2F 6458   2.379   4.497   6.460
 2009POPC   C2G 6459   2.313   4.448   6.590
 2009POPC   C2H 6460   2.264   4.568   6.672
 2009POPC   C2I 6461   2.206   4.532   6.809
 2009POPC   C2J 6462   2.131   4.652   6.870
 2009POPC   C2K 6463   2.073   4.621   7.009
 2009POPC   C2L 6464   2.009   4.741   7.079
 2009POPC   C2M 6465   1.962   4.702   7.220
 2009POPC   C2N 6466   1.919   4.823   7.303
 2009POPC   C2O 6467   1.881   4.780   7.445
 2009POPC   C2P 6468   1.844   4.901   7.532
 2010POPC   CN1 6469   0.602   0.653   5.378
 2010POPC   CN2 6470   0.800   0.753   5.453
 2010POPC   CN3 6471   0.725   0.813   5.236
 2010POPC   NTM 6472   0.733   0.702   5.332
 2010POPC    CA 6473   0.799   0.590   5.263
 2010POPC    CB 6474   0.951   0.592   5.245
 2010POPC    OA 6475   1.012   0.554   5.367
 2010POPC     P 6476   1.160   0.609   5.382
 2010POPC    OB 6477   1.124   0.751   5.373
 2010POPC    OC 6478   1.204   0.538   5.260
 2010POPC    OD 6479   1.179   0.540   5.522
 2010POPC    CC 6480   1.082   0.534   5.630
 2010POPC    CD 6481   1.025   0.650   5.715
 2010POPC    OE 6482   1.121   0.728   5.789
 2010POPC   C1A 6483   1.091   0.854   5.821
 2010POPC    OF 6484   1.010   0.915   5.750
 2010POPC   C1B 6485   1.195   0.913   5.910
 2010POPC   C1C 6486   1.151   1.006   6.025
 2010POPC   C1D 6487   1.058   0.943   6.129
 2010POPC   C1E 6488   1.062   1.019   6.262
 2010POPC   C1F 6489   0.962   0.964   6.365
 2010POPC   C1G 6490   0.967   1.038   6.498
 2010POPC   C1H 6491   0.862   0.986   6.597
 2010POPC   C1I 6492   0.824   1.094   6.700
 2010POPC   C1J 6493   0.870   1.103   6.824
 2010POPC   C1K 6494   0.964   0.998   6.885
 2010POPC   C1L 6495   0.964   0.997   7.038
 2010POPC   C1M 6496   0.827   0.970   7.100
 2010POPC   C1N 6497   0.831   0.947   7.252
 2010POPC   C1O 6498   0.887   1.065   7.333
 2010POPC   C1P 6499   0.861   1.046   7.483
 2010POPC   C1Q 6500   0.929   0.922   7.541
 2010POPC   C1R 6501   0.886   0.898   7.686
 2010POPC    CE 6502   0.911   0.590   5.800
 2010POPC    OG 6503   0.908   0.450   5.835
 2010POPC   C2A 6504   0.876   0.425   5.963
 2010POPC    OH 6505   0.804   0.505   6.021
 2010POPC   C2B 6506   0.907   0.288   6.015
 2010POPC   C2C 6507   0.906   0.287   6.169
 2010POPC   C2D 6508   0.982   0.174   6.241
 2010POPC   C2E 6509   0.997   0.211   6.390
 2010POPC   C2F 6510   1.083   0.117   6.477
 2010POPC   C2G 6511   1.114   0.185   6.611
 2010POPC   C2H 6512   1.190   0.099   6.713
 2010POPC   C2I 6513   1.232   0.183   6.835
 2010POPC   C2J 6514   1.300   0.100   6.945
 2010POPC   C2K 6515   1.354   0.190   7.057
 2010POPC   C2L 6516   1.417   0.110   7.171
 2010POPC   C2M 6517   1.481   0.204   7.274
 2010POPC   C2N 6518   1.537   0.127   7.395
 2010POPC   C2O 6519   1.611   0.222   7.489
 2010POPC   C2P 6520   1.667   0.149   7.612
 2011POPC   CN1 6521   3.878   4.569   5.215
 2011POPC   CN2 6522   3.930   4.436   5.400
 2011POPC   CN3 6523   3.948   4.343   5.178
 2011POPC   NTM 6524   3.871   4.431   5.265
 2011POPC    CA 6525   3.730   4.385   5.279
 2011POPC    CB 6526   3.698   4.235   5.296
 2011POPC    OA 6527   3.787   4.174   5.388
 2011POPC     P 6528   3.775   4.018   5.403
 2011POPC    OB 6529   3.884   3.978   5.313
 2011POPC    OC 6530   3.638   3.982   5.362
 2011POPC    OD 6531   3.809   3.997   5.554
 2011POPC    CC 6532   3.750   4.085   5.653
 2011POPC    CD 6533   3.838   4.203   5.702
 2011POPC    OE 6534   3.954   4.161   5.779
 2011POPC   C1A 6535   4.041   4.252   5.825
 2011POPC    OF 6536   4.026   4.369   5.791
 2011POPC   C1B 6537   4.161   4.194   5.891
 2011POPC   C1C 6538   4.261   4.294   5.950
 2011POPC   C1D 6539   4.247   4.312   6.101
 2011POPC   C1E 6540   4.350   4.412   6.154
 2011POPC   C1F 6541   4.324   4.447   6.301
 2011POPC   C1G 6542   4.421   4.553   6.354
 2011POPC   C1H 6543   4.377   4.604   6.491
 2011POPC   C1I 6544   4.488   4.680   6.564
 2011POPC   C1J 6545   4.482   4.691   6.696
 2011POPC   C1K 6546   4.362   4.630   6.768
 2011POPC   C1L 6547   4.376   4.623   6.920
 2011POPC   C1M 6548   4.326   4.748   6.992
 2011POPC   C1N 6549   4.321   4.734   7.145
 2011POPC   C1O 6550   4.455   4.692   7.206
 2011POPC   C1P 6551   4.468   4.725   7.355
 2011POPC   C1Q 6552   4.356   4.667   7.442
 2011POPC   C1R 6553   4.372   4.709   7.588
 2011POPC    CE 6554   3.742   4.309   5.760
 2011POPC    OG 6555   3.659   4.267   5.869
 2011POPC   C2A 6556   3.685   4.328   5.985
 2011POPC    OH 6557   3.747   4.433   5.990
 2011POPC   C2B 6558   3.612   4.266   6.098
 2011POPC   C2C 6559   3.704   4.254   6.219
 2011POPC   C2D 6560   3.631   4.185   6.334
 2011POPC   C2E 6561   3.728   4.173   6.452
 2011POPC   C2F 6562   3.663   4.103   6.571
 2011POPC   C2G 6563   3.770   4.087   6.679
 2011POPC   C2H 6564   3.718   4.019   6.805
 2011POPC   C2I 6565   3.836   3.994   6.898
 2011POPC   C2J 6566   3.791   3.939   7.033
 2011POPC   C2K 6567   3.913   3.902   7.117
 2011POPC   C2L 6568   3.872   3.863   7.259
 2011POPC   C2M 6569   3.992   3.803   7.331
 2011POPC   C2N 6570   3.958   3.761   7.474
 2011POPC   C2O 6571   4.077   3.686   7.535
 2011POPC   C2P 6572   4.046   3.640   7.677
 2012POPC   CN1 6573   2.238   4.620   5.410
 2012POPC   CN2 6574   2.063   4.755   5.469
 2012POPC   CN3 6575   2.099   4.719   5.237
 2012POPC   NTM 6576   2.165   4.738   5.366
 2012POPC    CA 6577   2.258   4.852   5.355
 2012POPC    CB 6578   2.201   4.992   5.331
 2012POPC    OA 6579   2.137   5.038   5.447
 2012POPC     P 6580   2.004   5.116   5.416
 2012POPC    OB 6581   1.944   5.026   5.316
 2012POPC    OC 6582   2.069   5.235   5.363
 2012POPC    OD 6583   1.928   5.112   5.553
 2012POPC    CC 6584   1.997   5.113   5.678
 2012POPC    CD 6585   2.014   4.972   5.741
 2012POPC    OE 6586   1.921   4.933   5.845
 2012POPC   C1A 6587   1.881   4.806   5.844
 2012POPC    OF 6588   1.932   4.730   5.761
 2012POPC   C1B 6589   1.772   4.773   5.940
 2012POPC   C1C 6590   1.748   4.623   5.971
 2012POPC   C1D 6591   1.807   4.585   6.107
 2012POPC   C1E 6592   1.774   4.448   6.169
 2012POPC   C1F 6593   1.866   4.422   6.289
 2012POPC   C1G 6594   1.818   4.315   6.388
 2012POPC   C1H 6595   1.904   4.307   6.515
 2012POPC   C1I 6596   1.827   4.223   6.617
 2012POPC   C1J 6597   1.847   4.213   6.749
 2012POPC   C1K 6598   1.960   4.277   6.830
 2012POPC   C1L 6599   1.924   4.280   6.980
 2012POPC   C1M 6600   2.047   4.274   7.070
 2012POPC   C1N 6601   2.026   4.313   7.218
 2012POPC   C1O 6602   1.905   4.246   7.285
 2012POPC   C1P 6603   1.921   4.231   7.437
 2012POPC   C1Q 6604   1.950   4.359   7.515
 2012POPC   C1R 6605   1.962   4.327   7.664
 2012POPC    CE 6606   2.164   4.951   5.770
 2012POPC    OG 6607   2.219   5.048   5.857
 2012POPC   C2A 6608   2.249   4.999   5.977
 2012POPC    OH 6609   2.321   4.900   5.983
 2012POPC   C2B 6610   2.224   5.099   6.081
 2012POPC   C2C 6611   2.152   5.049   6.206
 2012POPC   C2D 6612   2.080   5.164   6.276
 2012POPC   C2E 6613   2.034   5.128   6.416
 2012POPC   C2F 6614   1.983   5.249   6.495
 2012POPC   C2G 6615   1.956   5.204   6.638
 2012POPC   C2H 6616   1.931   5.319   6.736
 2012POPC   C2I 6617   1.913   5.259   6.875
 2012POPC   C2J 6618   1.884   5.367   6.980
 2012POPC   C2K 6619   1.834   5.301   7.108
 2012POPC   C2L 6620   1.792   5.407   7.210
 2012POPC   C2M 6621   1.722   5.343   7.329
 2012POPC   C2N 6622   1.687   5.449   7.433
 2012POPC   C2O 6623   1.621   5.386   7.556
 2012POPC   C2P 6624   1.603   5.490   7.667
 2013POPC   CN1 6625   1.190   3.466   5.133
 2013POPC   CN2 6626   1.102   3.382   5.338
 2013POPC   CN3 6627   1.081   3.256   5.138
 2013POPC   NTM 6628   1.079   3.392   5.193
 2013POPC    CA 6629   0.954   3.464   5.159
 2013POPC    CB 6630   0.817   3.405   5.195
 2013POPC    OA 6631   0.799   3.390   5.334
 2013POPC     P 6632   0.673   3.300   5.366
 2013POPC    OB 6633   0.682   3.194   5.263
 2013POPC    OC 6634   0.575   3.409   5.347
 2013POPC    OD 6635   0.705   3.261   5.514
 2013POPC    CC 6636   0.738   3.366   5.607
 2013POPC    CD 6637   0.882   3.365   5.662
 2013POPC    OE 6638   0.905   3.274   5.772
 2013POPC   C1A 6639   1.031   3.238   5.798
 2013POPC    OF 6640   1.122   3.274   5.722
 2013POPC   C1B 6641   1.041   3.151   5.917
 2013POPC   C1C 6642   1.169   3.166   5.998
 2013POPC   C1D 6643   1.146   3.247   6.126
 2013POPC   C1E 6644   1.279   3.256   6.201
 2013POPC   C1F 6645   1.274   3.322   6.338
 2013POPC   C1G 6646   1.413   3.304   6.400
 2013POPC   C1H 6647   1.415   3.328   6.551
 2013POPC   C1I 6648   1.525   3.243   6.615
 2013POPC   C1J 6649   1.511   3.202   6.740
 2013POPC   C1K 6650   1.386   3.248   6.816
 2013POPC   C1L 6651   1.402   3.250   6.968
 2013POPC   C1M 6652   1.499   3.359   7.015
 2013POPC   C1N 6653   1.498   3.375   7.167
 2013POPC   C1O 6654   1.540   3.246   7.238
 2013POPC   C1P 6655   1.553   3.261   7.390
 2013POPC   C1Q 6656   1.419   3.287   7.460
 2013POPC   C1R 6657   1.442   3.298   7.611
 2013POPC    CE 6658   0.918   3.510   5.699
 2013POPC    OG 6659   0.855   3.569   5.815
 2013POPC   C2A 6660   0.931   3.569   5.926
 2013POPC    OH 6661   1.053   3.567   5.916
 2013POPC   C2B 6662   0.857   3.606   6.049
 2013POPC   C2C 6663   0.916   3.542   6.175
 2013POPC   C2D 6664   0.826   3.563   6.297
 2013POPC   C2E 6665   0.876   3.493   6.424
 2013POPC   C2F 6666   0.762   3.492   6.526
 2013POPC   C2G 6667   0.795   3.434   6.664
 2013POPC   C2H 6668   0.669   3.442   6.751
 2013POPC   C2I 6669   0.690   3.398   6.896
 2013POPC   C2J 6670   0.567   3.431   6.981
 2013POPC   C2K 6671   0.581   3.373   7.121
 2013POPC   C2L 6672   0.465   3.412   7.214
 2013POPC   C2M 6673   0.463   3.313   7.330
 2013POPC   C2N 6674   0.370   3.351   7.445
 2013POPC   C2O 6675   0.373   3.240   7.550
 2013POPC   C2P 6676   0.298   3.279   7.677
 2014POPC   CN1 6677   1.675   1.925   5.229
 2014POPC   CN2 6678   1.717   1.781   5.408
 2014POPC   CN3 6679   1.838   1.748   5.205
 2014POPC   NTM 6680   1.708   1.786   5.261
 2014POPC    CA 6681   1.598   1.702   5.208
 2014POPC    CB 6682   1.602   1.548   5.220
 2014POPC    OA 6683   1.615   1.509   5.355
 2014POPC     P 6684   1.671   1.362   5.369
 2014POPC    OB 6685   1.799   1.382   5.299
 2014POPC    OC 6686   1.561   1.286   5.305
 2014POPC    OD 6687   1.683   1.351   5.525
 2014POPC    CC 6688   1.581   1.405   5.610
 2014POPC    CD 6689   1.618   1.543   5.668
 2014POPC    OE 6690   1.716   1.540   5.774
 2014POPC   C1A 6691   1.787   1.650   5.798
 2014POPC    OF 6692   1.794   1.738   5.711
 2014POPC   C1B 6693   1.881   1.629   5.910
 2014POPC   C1C 6694   1.918   1.755   5.989
 2014POPC   C1D 6695   1.819   1.791   6.100
 2014POPC   C1E 6696   1.883   1.900   6.186
 2014POPC   C1F 6697   1.806   1.929   6.315
 2014POPC   C1G 6698   1.892   2.022   6.401
 2014POPC   C1H 6699   1.832   2.046   6.539
 2014POPC   C1I 6700   1.932   2.124   6.625
 2014POPC   C1J 6701   1.934   2.108   6.757
 2014POPC   C1K 6702   1.833   2.015   6.825
 2014POPC   C1L 6703   1.832   2.028   6.978
 2014POPC   C1M 6704   1.797   2.169   7.024
 2014POPC   C1N 6705   1.766   2.182   7.173
 2014POPC   C1O 6706   1.886   2.167   7.266
 2014POPC   C1P 6707   1.853   2.217   7.407
 2014POPC   C1Q 6708   1.741   2.137   7.475
 2014POPC   C1R 6709   1.707   2.196   7.612
 2014POPC    CE 6710   1.487   1.619   5.699
 2014POPC    OG 6711   1.399   1.567   5.799
 2014POPC   C2A 6712   1.410   1.624   5.920
 2014POPC    OH 6713   1.500   1.704   5.946
 2014POPC   C2B 6714   1.311   1.572   6.017
 2014POPC   C2C 6715   1.367   1.580   6.158
 2014POPC   C2D 6716   1.279   1.503   6.256
 2014POPC   C2E 6717   1.343   1.506   6.394
 2014POPC   C2F 6718   1.263   1.418   6.490
 2014POPC   C2G 6719   1.336   1.413   6.624
 2014POPC   C2H 6720   1.262   1.325   6.723
 2014POPC   C2I 6721   1.348   1.312   6.849
 2014POPC   C2J 6722   1.279   1.226   6.955
 2014POPC   C2K 6723   1.376   1.203   7.070
 2014POPC   C2L 6724   1.310   1.123   7.182
 2014POPC   C2M 6725   1.412   1.097   7.293
 2014POPC   C2N 6726   1.346   1.029   7.413
 2014POPC   C2O 6727   1.449   1.007   7.524
 2014POPC   C2P 6728   1.382   0.951   7.649
 2015POPC   CN1 6729   1.908   5.940   5.325
 2015POPC   CN2 6730   1.988   6.076   5.497
 2015POPC   CN3 6731   2.005   6.152   5.275
 2015POPC   NTM 6732   2.015   6.032   5.359
 2015POPC    CA 6733   2.146   5.962   5.355
 2015POPC    CB 6734   2.271   6.033   5.297
 2015POPC    OA 6735   2.379   6.048   5.387
 2015POPC     P 6736   2.390   6.199   5.440
 2015POPC    OB 6737   2.255   6.229   5.479
 2015POPC    OC 6738   2.443   6.248   5.312
 2015POPC    OD 6739   2.494   6.160   5.551
 2015POPC    CC 6740   2.469   6.062   5.654
 2015POPC    CD 6741   2.335   6.057   5.730
 2015POPC    OE 6742   2.315   6.167   5.820
 2015POPC   C1A 6743   2.190   6.205   5.842
 2015POPC    OF 6744   2.097   6.148   5.785
 2015POPC   C1B 6745   2.184   6.331   5.920
 2015POPC   C1C 6746   2.083   6.333   6.035
 2015POPC   C1D 6747   2.129   6.259   6.160
 2015POPC   C1E 6748   2.030   6.290   6.272
 2015POPC   C1F 6749   2.060   6.220   6.405
 2015POPC   C1G 6750   1.947   6.256   6.502
 2015POPC   C1H 6751   1.963   6.193   6.640
 2015POPC   C1I 6752   1.834   6.217   6.718
 2015POPC   C1J 6753   1.830   6.231   6.850
 2015POPC   C1K 6754   1.956   6.221   6.937
 2015POPC   C1L 6755   1.926   6.218   7.088
 2015POPC   C1M 6756   1.827   6.108   7.126
 2015POPC   C1N 6757   1.821   6.072   7.275
 2015POPC   C1O 6758   1.781   6.189   7.365
 2015POPC   C1P 6759   1.753   6.144   7.509
 2015POPC   C1Q 6760   1.879   6.096   7.582
 2015POPC   C1R 6761   1.852   6.062   7.728
 2015POPC    CE 6762   2.322   5.915   5.789
 2015POPC    OG 6763   2.432   5.865   5.865
 2015POPC   C2A 6764   2.407   5.853   5.996
 2015POPC    OH 6765   2.292   5.861   6.038
 2015POPC   C2B 6766   2.524   5.816   6.077
 2015POPC   C2C 6767   2.498   5.854   6.222
 2015POPC   C2D 6768   2.612   5.819   6.317
 2015POPC   C2E 6769   2.576   5.883   6.451
 2015POPC   C2F 6770   2.675   5.857   6.563
 2015POPC   C2G 6771   2.627   5.939   6.682
 2015POPC   C2H 6772   2.708   5.906   6.807
 2015POPC   C2I 6773   2.680   6.002   6.923
 2015POPC   C2J 6774   2.783   6.116   6.932
 2015POPC   C2K 6775   2.808   6.147   7.079
 2015POPC   C2L 6776   2.933   6.225   7.118
 2015POPC   C2M 6777   2.931   6.233   7.271
 2015POPC   C2N 6778   3.060   6.276   7.340
 2015POPC   C2O 6779   3.033   6.277   7.491
 2015POPC   C2P 6780   3.154   6.326   7.571
 2016POPC   CN1 6781   0.522   1.553   5.080
 2016POPC   CN2 6782   0.395   1.577   5.281
 2016POPC   CN3 6783   0.289   1.518   5.070
 2016POPC   NTM 6784   0.394   1.598   5.134
 2016POPC    CA 6785   0.370   1.738   5.097
 2016POPC    CB 6786   0.251   1.813   5.161
 2016POPC    OA 6787   0.276   1.851   5.295
 2016POPC     P 6788   0.154   1.943   5.341
 2016POPC    OB 6789   0.036   1.874   5.287
 2016POPC    OC 6790   0.205   2.058   5.264
 2016POPC    OD 6791   0.168   1.941   5.497
 2016POPC    CC 6792   0.293   1.929   5.564
 2016POPC    CD 6793   0.320   1.803   5.649
 2016POPC    OE 6794   0.214   1.779   5.746
 2016POPC   C1A 6795   0.224   1.691   5.844
 2016POPC    OF 6796   0.328   1.628   5.860
 2016POPC   C1B 6797   0.098   1.671   5.920
 2016POPC   C1C 6798   0.090   1.535   5.989
 2016POPC   C1D 6799   0.186   1.524   6.107
 2016POPC   C1E 6800   0.160   1.400   6.192
 2016POPC   C1F 6801   0.264   1.393   6.303
 2016POPC   C1G 6802   0.235   1.290   6.411
 2016POPC   C1H 6803   0.345   1.300   6.515
 2016POPC   C1I 6804   0.312   1.204   6.628
 2016POPC   C1J 6805   0.332   1.233   6.756
 2016POPC   C1K 6806   0.397   1.363   6.801
 2016POPC   C1L 6807   0.413   1.366   6.953
 2016POPC   C1M 6808   0.500   1.252   7.009
 2016POPC   C1N 6809   0.533   1.266   7.158
 2016POPC   C1O 6810   0.413   1.304   7.246
 2016POPC   C1P 6811   0.441   1.293   7.397
 2016POPC   C1Q 6812   0.572   1.358   7.442
 2016POPC   C1R 6813   0.587   1.353   7.594
 2016POPC    CE 6814   0.470   1.798   5.686
 2016POPC    OG 6815   0.538   1.903   5.758
 2016POPC   C2A 6816   0.616   1.858   5.856
 2016POPC    OH 6817   0.688   1.760   5.830
 2016POPC   C2B 6818   0.657   1.959   5.957
 2016POPC   C2C 6819   0.611   1.937   6.102
 2016POPC   C2D 6820   0.695   2.017   6.204
 2016POPC   C2E 6821   0.634   2.019   6.345
 2016POPC   C2F 6822   0.727   2.063   6.459
 2016POPC   C2G 6823   0.643   2.083   6.587
 2016POPC   C2H 6824   0.715   2.105   6.721
 2016POPC   C2I 6825   0.608   2.147   6.823
 2016POPC   C2J 6826   0.642   2.144   6.973
 2016POPC   C2K 6827   0.519   2.197   7.049
 2016POPC   C2L 6828   0.521   2.182   7.202
 2016POPC   C2M 6829   0.400   2.254   7.261
 2016POPC   C2N 6830   0.398   2.258   7.414
 2016POPC   C2O 6831   0.297   2.361   7.464
 2016POPC   C2P 6832   0.308   2.384   7.615
 2017POPC   CN1 6833   2.787   3.283   5.306
 2017POPC   CN2 6834   2.592   3.228   5.429
 2017POPC   CN3 6835   2.621   3.150   5.203
 2017POPC   NTM 6836   2.642   3.262   5.294
 2017POPC    CA 6837   2.575   3.381   5.237
 2017POPC    CB 6838   2.421   3.395   5.246
 2017POPC    OA 6839   2.376   3.456   5.366
 2017POPC     P 6840   2.220   3.430   5.380
 2017POPC    OB 6841   2.208   3.286   5.365
 2017POPC    OC 6842   2.174   3.516   5.269
 2017POPC    OD 6843   2.175   3.487   5.519
 2017POPC    CC 6844   2.264   3.503   5.631
 2017POPC    CD 6845   2.346   3.386   5.689
 2017POPC    OE 6846   2.270   3.302   5.780
 2017POPC   C1A 6847   2.326   3.197   5.840
 2017POPC    OF 6848   2.443   3.168   5.813
 2017POPC   C1B 6849   2.232   3.124   5.927
 2017POPC   C1C 6850   2.292   3.016   6.018
 2017POPC   C1D 6851   2.372   3.071   6.136
 2017POPC   C1E 6852   2.408   2.956   6.231
 2017POPC   C1F 6853   2.492   3.005   6.349
 2017POPC   C1G 6854   2.541   2.889   6.435
 2017POPC   C1H 6855   2.647   2.936   6.535
 2017POPC   C1I 6856   2.705   2.825   6.621
 2017POPC   C1J 6857   2.661   2.805   6.745
 2017POPC   C1K 6858   2.551   2.894   6.804
 2017POPC   C1L 6859   2.542   2.888   6.957
 2017POPC   C1M 6860   2.668   2.943   7.026
 2017POPC   C1N 6861   2.654   2.952   7.178
 2017POPC   C1O 6862   2.631   2.817   7.245
 2017POPC   C1P 6863   2.677   2.817   7.391
 2017POPC   C1Q 6864   2.601   2.913   7.483
 2017POPC   C1R 6865   2.657   2.906   7.625
 2017POPC    CE 6866   2.473   3.453   5.746
 2017POPC    OG 6867   2.457   3.523   5.869
 2017POPC   C2A 6868   2.524   3.471   5.972
 2017POPC    OH 6869   2.622   3.399   5.953
 2017POPC   C2B 6870   2.490   3.533   6.101
 2017POPC   C2C 6871   2.413   3.444   6.198
 2017POPC   C2D 6872   2.363   3.532   6.312
 2017POPC   C2E 6873   2.325   3.454   6.437
 2017POPC   C2F 6874   2.282   3.550   6.547
 2017POPC   C2G 6875   2.249   3.472   6.674
 2017POPC   C2H 6876   2.184   3.560   6.779
 2017POPC   C2I 6877   2.137   3.476   6.898
 2017POPC   C2J 6878   2.032   3.555   6.975
 2017POPC   C2K 6879   1.993   3.494   7.109
 2017POPC   C2L 6880   1.891   3.582   7.181
 2017POPC   C2M 6881   1.855   3.521   7.316
 2017POPC   C2N 6882   1.779   3.619   7.405
 2017POPC   C2O 6883   1.753   3.554   7.541
 2017POPC   C2P 6884   1.703   3.655   7.644
 2018POPC   CN1 6885   3.563   5.178   5.256
 2018POPC   CN2 6886   3.629   5.003   5.399
 2018POPC   CN3 6887   3.673   4.989   5.161
 2018POPC   NTM 6888   3.579   5.034   5.264
 2018POPC    CA 6889   3.448   4.973   5.236
 2018POPC    CB 6890   3.436   4.821   5.256
 2018POPC    OA 6891   3.433   4.779   5.391
 2018POPC     P 6892   3.455   4.624   5.399
 2018POPC    OB 6893   3.579   4.619   5.320
 2018POPC    OC 6894   3.336   4.568   5.335
 2018POPC    OD 6895   3.488   4.586   5.548
 2018POPC    CC 6896   3.432   4.662   5.656
 2018POPC    CD 6897   3.511   4.787   5.699
 2018POPC    OE 6898   3.632   4.762   5.776
 2018POPC   C1A 6899   3.714   4.865   5.799
 2018POPC    OF 6900   3.710   4.957   5.717
 2018POPC   C1B 6901   3.808   4.845   5.912
 2018POPC   C1C 6902   3.934   4.933   5.923
 2018POPC   C1D 6903   3.973   4.943   6.071
 2018POPC   C1E 6904   4.094   5.023   6.120
 2018POPC   C1F 6905   4.078   5.032   6.273
 2018POPC   C1G 6906   4.165   5.131   6.350
 2018POPC   C1H 6907   4.105   5.153   6.489
 2018POPC   C1I 6908   4.175   5.261   6.573
 2018POPC   C1J 6909   4.170   5.259   6.706
 2018POPC   C1K 6910   4.096   5.149   6.782
 2018POPC   C1L 6911   4.103   5.161   6.935
 2018POPC   C1M 6912   4.023   5.280   6.988
 2018POPC   C1N 6913   4.006   5.279   7.140
 2018POPC   C1O 6914   4.138   5.299   7.215
 2018POPC   C1P 6915   4.119   5.323   7.365
 2018POPC   C1Q 6916   4.065   5.202   7.441
 2018POPC   C1R 6917   4.072   5.228   7.592
 2018POPC    CE 6918   3.409   4.886   5.761
 2018POPC    OG 6919   3.343   4.848   5.882
 2018POPC   C2A 6920   3.404   4.881   5.996
 2018POPC    OH 6921   3.512   4.941   5.996
 2018POPC   C2B 6922   3.325   4.854   6.118
 2018POPC   C2C 6923   3.422   4.818   6.230
 2018POPC   C2D 6924   3.362   4.832   6.369
 2018POPC   C2E 6925   3.463   4.766   6.463
 2018POPC   C2F 6926   3.421   4.765   6.609
 2018POPC   C2G 6927   3.514   4.663   6.676
 2018POPC   C2H 6928   3.485   4.645   6.824
 2018POPC   C2I 6929   3.568   4.529   6.877
 2018POPC   C2J 6930   3.530   4.500   7.022
 2018POPC   C2K 6931   3.616   4.390   7.083
 2018POPC   C2L 6932   3.570   4.366   7.226
 2018POPC   C2M 6933   3.668   4.276   7.301
 2018POPC   C2N 6934   3.627   4.265   7.448
 2018POPC   C2O 6935   3.731   4.184   7.526
 2018POPC   C2P 6936   3.694   4.175   7.674
 2019POPC   CN1 6937   2.369   0.999   5.275
 2019POPC   CN2 6938   2.547   1.081   5.405
 2019POPC   CN3 6939   2.538   1.134   5.172
 2019POPC   NTM 6940   2.513   1.030   5.272
 2019POPC    CA 6941   2.588   0.906   5.238
 2019POPC    CB 6942   2.742   0.899   5.245
 2019POPC    OA 6943   2.793   0.910   5.376
 2019POPC     P 6944   2.939   0.853   5.383
 2019POPC    OB 6945   3.012   0.917   5.273
 2019POPC    OC 6946   2.910   0.709   5.372
 2019POPC    OD 6947   2.987   0.899   5.525
 2019POPC    CC 6948   2.910   0.858   5.638
 2019POPC    CD 6949   2.820   0.966   5.702
 2019POPC    OE 6950   2.880   1.034   5.816
 2019POPC   C1A 6951   2.817   1.138   5.872
 2019POPC    OF 6952   2.710   1.175   5.824
 2019POPC   C1B 6953   2.876   1.182   6.000
 2019POPC   C1C 6954   2.816   1.312   6.056
 2019POPC   C1D 6955   2.854   1.324   6.204
 2019POPC   C1E 6956   2.819   1.457   6.271
 2019POPC   C1F 6957   2.674   1.469   6.319
 2019POPC   C1G 6958   2.657   1.586   6.416
 2019POPC   C1H 6959   2.526   1.577   6.495
 2019POPC   C1I 6960   2.513   1.694   6.593
 2019POPC   C1J 6961   2.542   1.686   6.723
 2019POPC   C1K 6962   2.589   1.555   6.789
 2019POPC   C1L 6963   2.571   1.555   6.942
 2019POPC   C1M 6964   2.424   1.559   6.985
 2019POPC   C1N 6965   2.405   1.548   7.137
 2019POPC   C1O 6966   2.460   1.669   7.214
 2019POPC   C1P 6967   2.419   1.668   7.361
 2019POPC   C1Q 6968   2.478   1.551   7.440
 2019POPC   C1R 6969   2.433   1.555   7.586
 2019POPC    CE 6970   2.689   0.893   5.736
 2019POPC    OG 6971   2.702   0.804   5.847
 2019POPC   C2A 6972   2.675   0.860   5.965
 2019POPC    OH 6973   2.579   0.937   5.975
 2019POPC   C2B 6974   2.745   0.793   6.077
 2019POPC   C2C 6975   2.710   0.849   6.215
 2019POPC   C2D 6976   2.774   0.758   6.319
 2019POPC   C2E 6977   2.753   0.811   6.460
 2019POPC   C2F 6978   2.818   0.716   6.561
 2019POPC   C2G 6979   2.818   0.783   6.698
 2019POPC   C2H 6980   2.892   0.700   6.802
 2019POPC   C2I 6981   2.915   0.788   6.924
 2019POPC   C2J 6982   3.000   0.721   7.030
 2019POPC   C2K 6983   3.028   0.819   7.144
 2019POPC   C2L 6984   3.094   0.748   7.262
 2019POPC   C2M 6985   3.115   0.846   7.377
 2019POPC   C2N 6986   3.174   0.775   7.498
 2019POPC   C2O 6987   3.209   0.876   7.608
 2019POPC   C2P 6988   3.279   0.806   7.725
 2020POPC   CN1 6989   4.224   4.088   5.158
 2020POPC   CN2 6990   4.252   3.993   5.373
 2020POPC   CN3 6991   4.380   3.912   5.188
 2020POPC   NTM 6992   4.249   3.963   5.228
 2020POPC    CA 6993   4.135   3.875   5.193
 2020POPC    CB 6994   4.132   3.725   5.230
 2020POPC    OA 6995   4.153   3.702   5.368
 2020POPC     P 6996   4.231   3.567   5.390
 2020POPC    OB 6997   4.349   3.604   5.309
 2020POPC    OC 6998   4.128   3.474   5.343
 2020POPC    OD 6999   4.267   3.571   5.543
 2020POPC    CC 7000   4.172   3.626   5.635
 2020POPC    CD 7001   4.202   3.772   5.676
 2020POPC    OE 7002   4.321   3.784   5.759
 2020POPC   C1A 7003   4.392   3.896   5.756
 2020POPC    OF 7004   4.391   3.960   5.650
 2020POPC   C1B 7005   4.503   3.892   5.854
 2020POPC   C1C 7006   4.521   4.018   5.939
 2020POPC   C1D 7007   4.491   3.991   6.086
 2020POPC   C1E 7008   4.557   4.100   6.172
 2020POPC   C1F 7009   4.519   4.092   6.320
 2020POPC   C1G 7010   4.596   4.200   6.397
 2020POPC   C1H 7011   4.543   4.213   6.540
 2020POPC   C1I 7012   4.615   4.327   6.613
 2020POPC   C1J 7013   4.632   4.317   6.744
 2020POPC   C1K 7014   4.579   4.192   6.814
 2020POPC   C1L 7015   4.589   4.198   6.967
 2020POPC   C1M 7016   4.501   4.307   7.027
 2020POPC   C1N 7017   4.497   4.307   7.179
 2020POPC   C1O 7018   4.633   4.327   7.246
 2020POPC   C1P 7019   4.617   4.375   7.391
 2020POPC   C1Q 7020   4.537   4.280   7.480
 2020POPC   C1R 7021   4.505   4.345   7.615
 2020POPC    CE 7022   4.072   3.832   5.732
 2020POPC    OG 7023   4.009   3.760   5.839
 2020POPC   C2A 7024   4.032   3.810   5.961
 2020POPC    OH 7025   4.102   3.909   5.976
 2020POPC   C2B 7026   3.970   3.733   6.071
 2020POPC   C2C 7027   4.051   3.756   6.199
 2020POPC   C2D 7028   3.995   3.685   6.322
 2020POPC   C2E 7029   4.082   3.721   6.441
 2020POPC   C2F 7030   4.037   3.647   6.566
 2020POPC   C2G 7031   4.131   3.673   6.684
 2020POPC   C2H 7032   4.089   3.586   6.802
 2020POPC   C2I 7033   4.189   3.596   6.917
 2020POPC   C2J 7034   4.150   3.497   7.027
 2020POPC   C2K 7035   4.252   3.496   7.140
 2020POPC   C2L 7036   4.213   3.394   7.247
 2020POPC   C2M 7037   4.323   3.384   7.352
 2020POPC   C2N 7038   4.288   3.281   7.460
 2020POPC   C2O 7039   4.401   3.272   7.562
 2020POPC   C2P 7040   4.367   3.172   7.673
 2021POPC   CN1 7041   6.150   5.334   5.216
 2021POPC   CN2 7042   5.975   5.369   5.371
 2021POPC   CN3 7043   5.920   5.313   5.146
 2021POPC   NTM 7044   6.014   5.387   5.230
 2021POPC    CA 7045   6.011   5.529   5.186
 2021POPC    CB 7046   5.879   5.607   5.198
 2021POPC    OA 7047   5.850   5.624   5.335
 2021POPC     P 7048   5.728   5.720   5.367
 2021POPC    OB 7049   5.635   5.655   5.273
 2021POPC    OC 7050   5.820   5.827   5.328
 2021POPC    OD 7051   5.737   5.664   5.514
 2021POPC    CC 7052   5.847   5.701   5.599
 2021POPC    CD 7053   5.888   5.584   5.691
 2021POPC    OE 7054   5.801   5.558   5.804
 2021POPC   C1A 7055   5.758   5.433   5.819
 2021POPC    OF 7056   5.794   5.347   5.739
 2021POPC   C1B 7057   5.666   5.416   5.934
 2021POPC   C1C 7058   5.638   5.274   5.984
 2021POPC   C1D 7059   5.757   5.199   6.045
 2021POPC   C1E 7060   5.711   5.111   6.162
 2021POPC   C1F 7061   5.813   5.011   6.219
 2021POPC   C1G 7062   5.768   4.955   6.354
 2021POPC   C1H 7063   5.884   4.926   6.452
 2021POPC   C1I 7064   5.830   4.942   6.595
 2021POPC   C1J 7065   5.888   4.974   6.712
 2021POPC   C1K 7066   6.030   5.007   6.757
 2021POPC   C1L 7067   6.026   5.051   6.905
 2021POPC   C1M 7068   6.164   5.053   6.973
 2021POPC   C1N 7069   6.166   5.094   7.121
 2021POPC   C1O 7070   6.074   5.011   7.211
 2021POPC   C1P 7071   6.129   4.974   7.349
 2021POPC   C1Q 7072   6.122   5.080   7.457
 2021POPC   C1R 7073   6.153   5.023   7.596
 2021POPC    CE 7074   6.040   5.584   5.723
 2021POPC    OG 7075   6.112   5.695   5.781
 2021POPC   C2A 7076   6.149   5.677   5.909
 2021POPC    OH 7077   6.181   5.564   5.944
 2021POPC   C2B 7078   6.193   5.801   5.981
 2021POPC   C2C 7079   6.238   5.782   6.127
 2021POPC   C2D 7080   6.226   5.910   6.211
 2021POPC   C2E 7081   6.257   5.892   6.361
 2021POPC   C2F 7082   6.182   5.990   6.453
 2021POPC   C2G 7083   6.183   5.945   6.601
 2021POPC   C2H 7084   6.093   6.027   6.695
 2021POPC   C2I 7085   6.067   5.955   6.829
 2021POPC   C2J 7086   6.005   6.049   6.934
 2021POPC   C2K 7087   5.963   5.980   7.064
 2021POPC   C2L 7088   5.921   6.084   7.169
 2021POPC   C2M 7089   5.861   6.022   7.295
 2021POPC   C2N 7090   5.825   6.130   7.398
 2021POPC   C2O 7091   5.755   6.072   7.522
 2021POPC   C2P 7092   5.729   6.180   7.627
 2022POPC   CN1 7093   5.638   0.831   5.247
 2022POPC   CN2 7094   5.812   0.787   5.395
 2022POPC   CN3 7095   5.832   0.717   5.163
 2022POPC   NTM 7096   5.741   0.732   5.277
 2022POPC    CA 7097   5.679   0.601   5.314
 2022POPC    CB 7098   5.766   0.472   5.313
 2022POPC    OA 7099   5.895   0.504   5.365
 2022POPC     P 7100   6.004   0.390   5.376
 2022POPC    OB 7101   6.122   0.468   5.334
 2022POPC    OC 7102   5.956   0.286   5.285
 2022POPC    OD 7103   6.001   0.349   5.530
 2022POPC    CC 7104   5.910   0.406   5.626
 2022POPC    CD 7105   5.942   0.548   5.677
 2022POPC    OE 7106   6.053   0.551   5.769
 2022POPC   C1A 7107   6.127   0.661   5.774
 2022POPC    OF 7108   6.131   0.735   5.675
 2022POPC   C1B 7109   6.232   0.647   5.877
 2022POPC   C1C 7110   6.244   0.765   5.973
 2022POPC   C1D 7111   6.157   0.753   6.098
 2022POPC   C1E 7112   6.211   0.858   6.195
 2022POPC   C1F 7113   6.150   0.862   6.335
 2022POPC   C1G 7114   6.235   0.961   6.413
 2022POPC   C1H 7115   6.192   0.985   6.557
 2022POPC   C1I 7116   6.289   1.086   6.618
 2022POPC   C1J 7117   6.301   1.094   6.750
 2022POPC   C1K 7118   6.212   1.005   6.836
 2022POPC   C1L 7119   6.230   1.027   6.987
 2022POPC   C1M 7120   6.204   1.172   7.028
 2022POPC   C1N 7121   6.185   1.191   7.178
 2022POPC   C1O 7122   6.307   1.151   7.261
 2022POPC   C1P 7123   6.290   1.192   7.408
 2022POPC   C1Q 7124   6.168   1.129   7.474
 2022POPC   C1R 7125   6.145   1.188   7.613
 2022POPC    CE 7126   5.812   0.613   5.728
 2022POPC    OG 7127   5.734   0.546   5.829
 2022POPC   C2A 7128   5.768   0.573   5.955
 2022POPC    OH 7129   5.857   0.654   5.981
 2022POPC   C2B 7130   5.687   0.503   6.058
 2022POPC   C2C 7131   5.772   0.486   6.184
 2022POPC   C2D 7132   5.696   0.431   6.304
 2022POPC   C2E 7133   5.792   0.436   6.423
 2022POPC   C2F 7134   5.727   0.387   6.552
 2022POPC   C2G 7135   5.827   0.402   6.666
 2022POPC   C2H 7136   5.772   0.347   6.797
 2022POPC   C2I 7137   5.882   0.351   6.904
 2022POPC   C2J 7138   5.838   0.281   7.032
 2022POPC   C2K 7139   5.955   0.276   7.130
 2022POPC   C2L 7140   5.921   0.196   7.255
 2022POPC   C2M 7141   6.044   0.188   7.345
 2022POPC   C2N 7142   6.016   0.106   7.471
 2022POPC   C2O 7143   6.142   0.092   7.556
 2022POPC   C2P 7144   6.115   0.005   7.679
 2023POPC   CN1 7145   0.008   4.920   5.334
 2023POPC   CN2 7146  -0.185   4.851   5.453
 2023POPC   CN3 7147  -0.116   4.729   5.264
 2023POPC   NTM 7148  -0.127   4.864   5.319
 2023POPC    CA 7149  -0.205   4.947   5.224
 2023POPC    CB 7150  -0.359   4.959   5.230
 2023POPC    OA 7151  -0.408   5.064   5.313
 2023POPC     P 7152  -0.561   5.044   5.357
 2023POPC    OB 7153  -0.614   4.945   5.261
 2023POPC    OC 7154  -0.608   5.182   5.351
 2023POPC    OD 7155  -0.521   4.993   5.499
 2023POPC    CC 7156  -0.480   5.095   5.591
 2023POPC    CD 7157  -0.373   5.045   5.690
 2023POPC    OE 7158  -0.429   4.971   5.799
 2023POPC   C1A 7159  -0.380   4.850   5.816
 2023POPC    OF 7160  -0.291   4.805   5.742
 2023POPC   C1B 7161  -0.448   4.781   5.927
 2023POPC   C1C 7162  -0.350   4.696   6.006
 2023POPC   C1D 7163  -0.251   4.781   6.086
 2023POPC   C1E 7164  -0.176   4.685   6.178
 2023POPC   C1F 7165  -0.122   4.755   6.302
 2023POPC   C1G 7166  -0.120   4.645   6.407
 2023POPC   C1H 7167  -0.088   4.687   6.549
 2023POPC   C1I 7168  -0.135   4.568   6.631
 2023POPC   C1J 7169  -0.148   4.564   6.763
 2023POPC   C1K 7170  -0.105   4.676   6.856
 2023POPC   C1L 7171  -0.102   4.616   6.996
 2023POPC   C1M 7172  -0.032   4.709   7.095
 2023POPC   C1N 7173  -0.022   4.647   7.234
 2023POPC   C1O 7174  -0.159   4.619   7.299
 2023POPC   C1P 7175  -0.147   4.569   7.443
 2023POPC   C1Q 7176  -0.066   4.665   7.532
 2023POPC   C1R 7177  -0.061   4.617   7.677
 2023POPC    CE 7178  -0.264   5.150   5.725
 2023POPC    OG 7179  -0.253   5.227   5.846
 2023POPC   C2A 7180  -0.194   5.175   5.954
 2023POPC    OH 7181  -0.129   5.071   5.944
 2023POPC   C2B 7182  -0.189   5.271   6.068
 2023POPC   C2C 7183  -0.206   5.215   6.210
 2023POPC   C2D 7184  -0.291   5.313   6.293
 2023POPC   C2E 7185  -0.344   5.262   6.428
 2023POPC   C2F 7186  -0.482   5.325   6.462
 2023POPC   C2G 7187  -0.554   5.282   6.591
 2023POPC   C2H 7188  -0.513   5.346   6.725
 2023POPC   C2I 7189  -0.592   5.280   6.840
 2023POPC   C2J 7190  -0.573   5.341   6.979
 2023POPC   C2K 7191  -0.658   5.266   7.083
 2023POPC   C2L 7192  -0.664   5.335   7.219
 2023POPC   C2M 7193  -0.763   5.267   7.314
 2023POPC   C2N 7194  -0.780   5.342   7.446
 2023POPC   C2O 7195  -0.880   5.272   7.539
 2023POPC   C2P 7196  -0.895   5.344   7.673
 2024POPC   CN1 7197   0.060   3.419   5.389
 2024POPC   CN2 7198   0.267   3.323   5.430
 2024POPC   CN3 7199   0.227   3.388   5.210
 2024POPC   NTM 7200   0.161   3.332   5.328
 2024POPC    CA 7201   0.089   3.208   5.292
 2024POPC    CB 7202   0.157   3.070   5.286
 2024POPC    OA 7203   0.206   3.040   5.414
 2024POPC     P 7204   0.339   2.956   5.402
 2024POPC    OB 7205   0.411   3.036   5.302
 2024POPC    OC 7206   0.283   2.828   5.361
 2024POPC    OD 7207   0.401   2.972   5.545
 2024POPC    CC 7208   0.318   2.968   5.662
 2024POPC    CD 7209   0.288   3.110   5.715
 2024POPC    OE 7210   0.390   3.165   5.801
 2024POPC   C1A 7211   0.411   3.296   5.799
 2024POPC    OF 7212   0.359   3.367   5.711
 2024POPC   C1B 7213   0.520   3.334   5.891
 2024POPC   C1C 7214   0.504   3.473   5.952
 2024POPC   C1D 7215   0.424   3.468   6.082
 2024POPC   C1E 7216   0.434   3.606   6.148
 2024POPC   C1F 7217   0.412   3.601   6.299
 2024POPC   C1G 7218   0.484   3.722   6.357
 2024POPC   C1H 7219   0.491   3.727   6.510
 2024POPC   C1I 7220   0.590   3.839   6.546
 2024POPC   C1J 7221   0.623   3.870   6.671
 2024POPC   C1K 7222   0.564   3.794   6.790
 2024POPC   C1L 7223   0.645   3.814   6.919
 2024POPC   C1M 7224   0.548   3.861   7.028
 2024POPC   C1N 7225   0.580   3.810   7.168
 2024POPC   C1O 7226   0.651   3.915   7.253
 2024POPC   C1P 7227   0.591   3.924   7.394
 2024POPC   C1Q 7228   0.601   3.793   7.473
 2024POPC   C1R 7229   0.541   3.809   7.612
 2024POPC    CE 7230   0.143   3.116   5.767
 2024POPC    OG 7231   0.110   3.053   5.891
 2024POPC   C2A 7232   0.122   3.128   6.001
 2024POPC    OH 7233   0.143   3.249   5.994
 2024POPC   C2B 7234   0.091   3.052   6.124
 2024POPC   C2C 7235   0.186   3.088   6.239
 2024POPC   C2D 7236   0.152   3.010   6.365
 2024POPC   C2E 7237   0.243   3.053   6.480
 2024POPC   C2F 7238   0.208   2.986   6.613
 2024POPC   C2G 7239   0.304   3.039   6.720
 2024POPC   C2H 7240   0.282   2.978   6.859
 2024POPC   C2I 7241   0.399   3.020   6.948
 2024POPC   C2J 7242   0.399   2.955   7.086
 2024POPC   C2K 7243   0.541   2.958   7.141
 2024POPC   C2L 7244   0.554   2.906   7.284
 2024POPC   C2M 7245   0.702   2.886   7.315
 2024POPC   C2N 7246   0.733   2.854   7.461
 2024POPC   C2O 7247   0.880   2.814   7.476
 2024POPC   C2P 7248   0.912   2.771   7.620
 2025POPC   CN1 7249   5.686   4.098   5.210
 2025POPC   CN2 7250   5.632   4.257   5.381
 2025POPC   CN3 7251   5.577   4.302   5.150
 2025POPC   NTM 7252   5.675   4.241   5.240
 2025POPC    CA 7253   5.808   4.300   5.214
 2025POPC    CB 7254   5.836   4.448   5.243
 2025POPC    OA 7255   5.828   4.484   5.380
 2025POPC     P 7256   5.775   4.632   5.395
 2025POPC    OB 7257   5.638   4.604   5.352
 2025POPC    OC 7258   5.869   4.695   5.301
 2025POPC    OD 7259   5.801   4.666   5.546
 2025POPC    CC 7260   5.842   4.566   5.640
 2025POPC    CD 7261   5.738   4.468   5.695
 2025POPC    OE 7262   5.630   4.526   5.774
 2025POPC   C1A 7263   5.525   4.448   5.798
 2025POPC    OF 7264   5.517   4.343   5.735
 2025POPC   C1B 7265   5.414   4.512   5.873
 2025POPC   C1C 7266   5.310   4.416   5.933
 2025POPC   C1D 7267   5.347   4.365   6.073
 2025POPC   C1E 7268   5.229   4.287   6.134
 2025POPC   C1F 7269   5.256   4.255   6.281
 2025POPC   C1G 7270   5.139   4.185   6.351
 2025POPC   C1H 7271   5.179   4.141   6.492
 2025POPC   C1I 7272   5.061   4.093   6.576
 2025POPC   C1J 7273   5.076   4.068   6.706
 2025POPC   C1K 7274   5.212   4.088   6.774
 2025POPC   C1L 7275   5.206   4.100   6.926
 2025POPC   C1M 7276   5.178   3.965   6.994
 2025POPC   C1N 7277   5.188   3.970   7.147
 2025POPC   C1O 7278   5.083   4.061   7.210
 2025POPC   C1P 7279   5.078   4.049   7.363
 2025POPC   C1Q 7280   5.209   4.088   7.433
 2025POPC   C1R 7281   5.194   4.070   7.584
 2025POPC    CE 7282   5.819   4.353   5.758
 2025POPC    OG 7283   5.890   4.374   5.881
 2025POPC   C2A 7284   5.823   4.336   5.990
 2025POPC    OH 7285   5.721   4.268   5.981
 2025POPC   C2B 7286   5.891   4.362   6.118
 2025POPC   C2C 7287   5.794   4.432   6.214
 2025POPC   C2D 7288   5.859   4.453   6.350
 2025POPC   C2E 7289   5.766   4.535   6.441
 2025POPC   C2F 7290   5.826   4.540   6.581
 2025POPC   C2G 7291   5.740   4.622   6.677
 2025POPC   C2H 7292   5.806   4.632   6.814
 2025POPC   C2I 7293   5.732   4.731   6.903
 2025POPC   C2J 7294   5.797   4.741   7.041
 2025POPC   C2K 7295   5.720   4.841   7.127
 2025POPC   C2L 7296   5.769   4.833   7.271
 2025POPC   C2M 7297   5.693   4.928   7.362
 2025POPC   C2N 7298   5.764   4.943   7.497
 2025POPC   C2O 7299   5.678   5.020   7.596
 2025POPC   C2P 7300   5.763   5.087   7.705
 2026POPC   CN1 7301   5.271   0.981   5.391
 2026POPC   CN2 7302   5.126   1.162   5.442
 2026POPC   CN3 7303   5.086   1.027   5.252
 2026POPC   NTM 7304   5.191   1.089   5.332
 2026POPC    CA 7305   5.277   1.169   5.241
 2026POPC    CB 7306   5.269   1.323   5.232
 2026POPC    OA 7307   5.326   1.386   5.345
 2026POPC     P 7308   5.275   1.530   5.385
 2026POPC    OB 7309   5.167   1.553   5.288
 2026POPC    OC 7310   5.396   1.612   5.371
 2026POPC    OD 7311   5.225   1.482   5.526
 2026POPC    CC 7312   5.319   1.423   5.617
 2026POPC    CD 7313   5.260   1.334   5.729
 2026POPC    OE 7314   5.193   1.411   5.831
 2026POPC   C1A 7315   5.092   1.351   5.890
 2026POPC    OF 7316   5.046   1.246   5.843
 2026POPC   C1B 7317   5.041   1.430   6.004
 2026POPC   C1C 7318   5.004   1.348   6.128
 2026POPC   C1D 7319   5.116   1.262   6.188
 2026POPC   C1E 7320   5.062   1.207   6.320
 2026POPC   C1F 7321   5.147   1.105   6.395
 2026POPC   C1G 7322   5.061   1.058   6.512
 2026POPC   C1H 7323   5.127   0.958   6.607
 2026POPC   C1I 7324   5.023   0.898   6.702
 2026POPC   C1J 7325   5.004   0.940   6.827
 2026POPC   C1K 7326   5.088   1.052   6.889
 2026POPC   C1L 7327   5.072   1.067   7.041
 2026POPC   C1M 7328   5.112   0.940   7.118
 2026POPC   C1N 7329   5.131   0.963   7.268
 2026POPC   C1O 7330   5.007   1.017   7.341
 2026POPC   C1P 7331   5.023   1.010   7.494
 2026POPC   C1Q 7332   5.140   1.094   7.547
 2026POPC   C1R 7333   5.158   1.072   7.697
 2026POPC    CE 7334   5.361   1.231   5.787
 2026POPC    OG 7335   5.478   1.275   5.858
 2026POPC   C2A 7336   5.500   1.230   5.981
 2026POPC    OH 7337   5.428   1.142   6.029
 2026POPC   C2B 7338   5.620   1.290   6.046
 2026POPC   C2C 7339   5.619   1.282   6.199
 2026POPC   C2D 7340   5.717   1.384   6.259
 2026POPC   C2E 7341   5.697   1.390   6.411
 2026POPC   C2F 7342   5.735   1.527   6.469
 2026POPC   C2G 7343   5.700   1.528   6.618
 2026POPC   C2H 7344   5.718   1.663   6.687
 2026POPC   C2I 7345   5.667   1.652   6.831
 2026POPC   C2J 7346   5.703   1.775   6.912
 2026POPC   C2K 7347   5.658   1.766   7.058
 2026POPC   C2L 7348   5.706   1.890   7.133
 2026POPC   C2M 7349   5.672   1.888   7.282
 2026POPC   C2N 7350   5.729   2.015   7.346
 2026POPC   C2O 7351   5.720   2.016   7.498
 2026POPC   C2P 7352   5.781   2.144   7.555
 2027POPC   CN1 7353   0.531   1.031   5.420
 2027POPC   CN2 7354   0.307   1.008   5.467
 2027POPC   CN3 7355   0.378   0.895   5.278
 2027POPC   NTM 7356   0.401   1.016   5.355
 2027POPC    CA 7357   0.391   1.130   5.261
 2027POPC    CB 7358   0.268   1.220   5.264
 2027POPC    OA 7359   0.272   1.312   5.371
 2027POPC     P 7360   0.128   1.358   5.419
 2027POPC    OB 7361   0.082   1.226   5.462
 2027POPC    OC 7362   0.096   1.409   5.285
 2027POPC    OD 7363   0.180   1.463   5.522
 2027POPC    CC 7364   0.279   1.438   5.623
 2027POPC    CD 7365   0.312   1.304   5.692
 2027POPC    OE 7366   0.222   1.253   5.793
 2027POPC   C1A 7367   0.241   1.127   5.830
 2027POPC    OF 7368   0.290   1.046   5.750
 2027POPC   C1B 7369   0.186   1.096   5.963
 2027POPC   C1C 7370   0.253   0.975   6.028
 2027POPC   C1D 7371   0.287   1.007   6.173
 2027POPC   C1E 7372   0.280   0.882   6.261
 2027POPC   C1F 7373   0.319   0.917   6.404
 2027POPC   C1G 7374   0.268   0.814   6.504
 2027POPC   C1H 7375   0.308   0.852   6.647
 2027POPC   C1I 7376   0.238   0.764   6.751
 2027POPC   C1J 7377   0.232   0.801   6.879
 2027POPC   C1K 7378   0.296   0.932   6.926
 2027POPC   C1L 7379   0.300   0.951   7.078
 2027POPC   C1M 7380   0.411   0.869   7.144
 2027POPC   C1N 7381   0.443   0.906   7.289
 2027POPC   C1O 7382   0.323   0.898   7.385
 2027POPC   C1P 7383   0.364   0.880   7.532
 2027POPC   C1Q 7384   0.461   0.987   7.584
 2027POPC   C1R 7385   0.497   0.963   7.731
 2027POPC    CE 7386   0.458   1.319   5.736
 2027POPC    OG 7387   0.510   1.426   5.817
 2027POPC   C2A 7388   0.514   1.406   5.949
 2027POPC    OH 7389   0.493   1.294   5.996
 2027POPC   C2B 7390   0.565   1.524   6.025
 2027POPC   C2C 7391   0.567   1.503   6.176
 2027POPC   C2D 7392   0.540   1.632   6.255
 2027POPC   C2E 7393   0.532   1.610   6.406
 2027POPC   C2F 7394   0.478   1.732   6.480
 2027POPC   C2G 7395   0.471   1.712   6.632
 2027POPC   C2H 7396   0.407   1.834   6.701
 2027POPC   C2I 7397   0.398   1.816   6.852
 2027POPC   C2J 7398   0.305   1.919   6.917
 2027POPC   C2K 7399   0.286   1.884   7.064
 2027POPC   C2L 7400   0.187   1.974   7.139
 2027POPC   C2M 7401   0.187   1.934   7.286
 2027POPC   C2N 7402   0.120   2.037   7.376
 2027POPC   C2O 7403   0.134   2.000   7.524
 2027POPC   C2P 7404   0.069   2.105   7.615
 2028POPC   CN1 7405   4.126   0.063   5.319
 2028POPC   CN2 7406   4.175   0.258   5.441
 2028POPC   CN3 7407   4.156   0.272   5.203
 2028POPC   NTM 7408   4.202   0.188   5.315
 2028POPC    CA 7409   4.347   0.155   5.305
 2028POPC    CB 7410   4.448   0.265   5.264
 2028POPC    OA 7411   4.421   0.385   5.335
 2028POPC     P 7412   4.543   0.482   5.358
 2028POPC    OB 7413   4.491   0.606   5.299
 2028POPC    OC 7414   4.656   0.411   5.298
 2028POPC    OD 7415   4.546   0.481   5.514
 2028POPC    CC 7416   4.578   0.361   5.587
 2028POPC    CD 7417   4.465   0.313   5.680
 2028POPC    OE 7418   4.416   0.414   5.771
 2028POPC   C1A 7419   4.287   0.421   5.799
 2028POPC    OF 7420   4.207   0.361   5.725
 2028POPC   C1B 7421   4.256   0.533   5.890
 2028POPC   C1C 7422   4.152   0.506   5.999
 2028POPC   C1D 7423   4.205   0.427   6.120
 2028POPC   C1E 7424   4.099   0.433   6.230
 2028POPC   C1F 7425   4.139   0.363   6.361
 2028POPC   C1G 7426   4.026   0.383   6.462
 2028POPC   C1H 7427   4.056   0.322   6.599
 2028POPC   C1I 7428   3.941   0.350   6.696
 2028POPC   C1J 7429   3.964   0.367   6.826
 2028POPC   C1K 7430   4.107   0.354   6.882
 2028POPC   C1L 7431   4.113   0.351   7.035
 2028POPC   C1M 7432   4.035   0.234   7.096
 2028POPC   C1N 7433   4.062   0.213   7.246
 2028POPC   C1O 7434   4.014   0.327   7.336
 2028POPC   C1P 7435   4.026   0.290   7.484
 2028POPC   C1Q 7436   4.171   0.271   7.530
 2028POPC   C1R 7437   4.176   0.229   7.678
 2028POPC    CE 7438   4.508   0.180   5.744
 2028POPC    OG 7439   4.631   0.182   5.818
 2028POPC   C2A 7440   4.619   0.201   5.949
 2028POPC    OH 7441   4.508   0.197   6.004
 2028POPC   C2B 7442   4.750   0.214   6.018
 2028POPC   C2C 7443   4.739   0.190   6.169
 2028POPC   C2D 7444   4.866   0.239   6.239
 2028POPC   C2E 7445   4.851   0.226   6.390
 2028POPC   C2F 7446   4.980   0.264   6.463
 2028POPC   C2G 7447   4.952   0.271   6.612
 2028POPC   C2H 7448   5.072   0.321   6.692
 2028POPC   C2I 7449   5.021   0.381   6.823
 2028POPC   C2J 7450   5.131   0.425   6.918
 2028POPC   C2K 7451   5.065   0.494   7.038
 2028POPC   C2L 7452   5.164   0.515   7.153
 2028POPC   C2M 7453   5.091   0.569   7.276
 2028POPC   C2N 7454   5.188   0.583   7.393
 2028POPC   C2O 7455   5.120   0.634   7.520
 2028POPC   C2P 7456   5.223   0.654   7.631
 2029POPC   CN1 7457   2.772   2.501   5.282
 2029POPC   CN2 7458   2.663   2.603   5.460
 2029POPC   CN3 7459   2.533   2.508   5.284
 2029POPC   NTM 7460   2.656   2.583   5.314
 2029POPC    CA 7461   2.669   2.709   5.238
 2029POPC    CB 7462   2.553   2.811   5.237
 2029POPC    OA 7463   2.532   2.873   5.363
 2029POPC     P 7464   2.377   2.889   5.395
 2029POPC    OB 7465   2.331   2.750   5.377
 2029POPC    OC 7466   2.348   2.986   5.288
 2029POPC    OD 7467   2.382   2.943   5.542
 2029POPC    CC 7468   2.502   2.954   5.620
 2029POPC    CD 7469   2.557   2.838   5.707
 2029POPC    OE 7470   2.470   2.798   5.814
 2029POPC   C1A 7471   2.459   2.668   5.843
 2029POPC    OF 7472   2.498   2.585   5.760
 2029POPC   C1B 7473   2.365   2.646   5.956
 2029POPC   C1C 7474   2.407   2.551   6.068
 2029POPC   C1D 7475   2.518   2.602   6.161
 2029POPC   C1E 7476   2.518   2.523   6.292
 2029POPC   C1F 7477   2.644   2.543   6.378
 2029POPC   C1G 7478   2.638   2.458   6.506
 2029POPC   C1H 7479   2.767   2.465   6.589
 2029POPC   C1I 7480   2.778   2.349   6.689
 2029POPC   C1J 7481   2.752   2.356   6.820
 2029POPC   C1K 7482   2.710   2.485   6.890
 2029POPC   C1L 7483   2.721   2.481   7.044
 2029POPC   C1M 7484   2.864   2.461   7.094
 2029POPC   C1N 7485   2.885   2.488   7.244
 2029POPC   C1O 7486   2.798   2.401   7.336
 2029POPC   C1P 7487   2.850   2.398   7.481
 2029POPC   C1Q 7488   2.853   2.536   7.548
 2029POPC   C1R 7489   2.909   2.528   7.690
 2029POPC    CE 7490   2.702   2.873   5.745
 2029POPC    OG 7491   2.731   3.000   5.805
 2029POPC   C2A 7492   2.760   2.997   5.936
 2029POPC    OH 7493   2.793   2.891   5.988
 2029POPC   C2B 7494   2.769   3.131   6.000
 2029POPC   C2C 7495   2.804   3.124   6.149
 2029POPC   C2D 7496   2.771   3.254   6.226
 2029POPC   C2E 7497   2.793   3.234   6.376
 2029POPC   C2F 7498   2.722   3.339   6.464
 2029POPC   C2G 7499   2.710   3.288   6.608
 2029POPC   C2H 7500   2.637   3.385   6.701
 2029POPC   C2I 7501   2.605   3.323   6.837
 2029POPC   C2J 7502   2.540   3.427   6.930
 2029POPC   C2K 7503   2.488   3.366   7.060
 2029POPC   C2L 7504   2.425   3.474   7.148
 2029POPC   C2M 7505   2.363   3.413   7.274
 2029POPC   C2N 7506   2.307   3.520   7.369
 2029POPC   C2O 7507   2.255   3.453   7.496
 2029POPC   C2P 7508   2.210   3.553   7.601
 2030POPC   CN1 7509   4.781   3.831   5.413
 2030POPC   CN2 7510   4.856   3.619   5.476
 2030POPC   CN3 7511   4.859   3.677   5.243
 2030POPC   NTM 7512   4.785   3.690   5.369
 2030POPC    CA 7513   4.647   3.638   5.357
 2030POPC    CB 7514   4.618   3.499   5.294
 2030POPC    OA 7515   4.677   3.387   5.359
 2030POPC     P 7516   4.577   3.263   5.370
 2030POPC    OB 7517   4.651   3.162   5.294
 2030POPC    OC 7518   4.446   3.304   5.320
 2030POPC    OD 7519   4.569   3.230   5.523
 2030POPC    CC 7520   4.509   3.324   5.613
 2030POPC    CD 7521   4.610   3.413   5.688
 2030POPC    OE 7522   4.701   3.339   5.772
 2030POPC   C1A 7523   4.820   3.391   5.798
 2030POPC    OF 7524   4.868   3.472   5.718
 2030POPC   C1B 7525   4.897   3.311   5.894
 2030POPC   C1C 7526   4.987   3.392   5.987
 2030POPC   C1D 7527   4.920   3.413   6.122
 2030POPC   C1E 7528   5.022   3.475   6.217
 2030POPC   C1F 7529   4.975   3.466   6.362
 2030POPC   C1G 7530   5.080   3.530   6.453
 2030POPC   C1H 7531   5.038   3.519   6.599
 2030POPC   C1I 7532   5.132   3.602   6.686
 2030POPC   C1J 7533   5.128   3.587   6.817
 2030POPC   C1K 7534   5.029   3.487   6.880
 2030POPC   C1L 7535   5.061   3.461   7.028
 2030POPC   C1M 7536   5.051   3.591   7.108
 2030POPC   C1N 7537   5.101   3.585   7.252
 2030POPC   C1O 7538   5.015   3.498   7.344
 2030POPC   C1P 7539   5.056   3.525   7.488
 2030POPC   C1Q 7540   4.977   3.442   7.588
 2030POPC   C1R 7541   5.021   3.474   7.731
 2030POPC    CE 7542   4.535   3.530   5.755
 2030POPC    OG 7543   4.447   3.500   5.864
 2030POPC   C2A 7544   4.488   3.544   5.983
 2030POPC    OH 7545   4.598   3.598   5.998
 2030POPC   C2B 7546   4.388   3.520   6.089
 2030POPC   C2C 7547   4.451   3.479   6.221
 2030POPC   C2D 7548   4.342   3.432   6.317
 2030POPC   C2E 7549   4.402   3.380   6.448
 2030POPC   C2F 7550   4.292   3.319   6.534
 2030POPC   C2G 7551   4.350   3.260   6.663
 2030POPC   C2H 7552   4.239   3.200   6.748
 2030POPC   C2I 7553   4.297   3.140   6.876
 2030POPC   C2J 7554   4.187   3.087   6.967
 2030POPC   C2K 7555   4.251   3.020   7.088
 2030POPC   C2L 7556   4.150   2.963   7.188
 2030POPC   C2M 7557   4.225   2.877   7.289
 2030POPC   C2N 7558   4.133   2.820   7.397
 2030POPC   C2O 7559   4.212   2.721   7.484
 2030POPC   C2P 7560   4.129   2.670   7.601
 2031POPC   CN1 7561   2.696   5.894   5.367
 2031POPC   CN2 7562   2.735   6.120   5.407
 2031POPC   CN3 7563   2.640   6.046   5.196
 2031POPC   NTM 7564   2.737   6.018   5.301
 2031POPC    CA 7565   2.866   6.009   5.229
 2031POPC    CB 7566   2.959   6.132   5.235
 2031POPC    OA 7567   3.039   6.115   5.349
 2031POPC     P 7568   3.107   6.249   5.402
 2031POPC    OB 7569   2.989   6.336   5.411
 2031POPC    OC 7570   3.196   6.262   5.286
 2031POPC    OD 7571   3.177   6.180   5.525
 2031POPC    CC 7572   3.124   6.074   5.607
 2031POPC    CD 7573   2.994   6.077   5.690
 2031POPC    OE 7574   2.994   6.177   5.793
 2031POPC   C1A 7575   2.876   6.212   5.844
 2031POPC    OF 7576   2.774   6.182   5.782
 2031POPC   C1B 7577   2.894   6.299   5.962
 2031POPC   C1C 7578   2.779   6.297   6.063
 2031POPC   C1D 7579   2.750   6.167   6.139
 2031POPC   C1E 7580   2.629   6.189   6.231
 2031POPC   C1F 7581   2.661   6.243   6.372
 2031POPC   C1G 7582   2.531   6.255   6.453
 2031POPC   C1H 7583   2.551   6.286   6.602
 2031POPC   C1I 7584   2.418   6.265   6.677
 2031POPC   C1J 7585   2.399   6.290   6.807
 2031POPC   C1K 7586   2.511   6.341   6.898
 2031POPC   C1L 7587   2.476   6.355   7.047
 2031POPC   C1M 7588   2.421   6.229   7.117
 2031POPC   C1N 7589   2.501   6.175   7.237
 2031POPC   C1O 7590   2.548   6.280   7.339
 2031POPC   C1P 7591   2.575   6.224   7.480
 2031POPC   C1Q 7592   2.663   6.099   7.488
 2031POPC   C1R 7593   2.681   6.054   7.634
 2031POPC    CE 7594   2.965   5.933   5.740
 2031POPC    OG 7595   3.068   5.860   5.811
 2031POPC   C2A 7596   3.051   5.859   5.944
 2031POPC    OH 7597   2.936   5.863   5.989
 2031POPC   C2B 7598   3.170   5.814   6.021
 2031POPC   C2C 7599   3.148   5.801   6.173
 2031POPC   C2D 7600   3.279   5.777   6.249
 2031POPC   C2E 7601   3.260   5.802   6.399
 2031POPC   C2F 7602   3.393   5.822   6.472
 2031POPC   C2G 7603   3.371   5.886   6.610
 2031POPC   C2H 7604   3.500   5.904   6.692
 2031POPC   C2I 7605   3.472   5.989   6.817
 2031POPC   C2J 7606   3.591   5.996   6.913
 2031POPC   C2K 7607   3.561   6.090   7.030
 2031POPC   C2L 7608   3.670   6.086   7.137
 2031POPC   C2M 7609   3.639   6.186   7.249
 2031POPC   C2N 7610   3.738   6.174   7.365
 2031POPC   C2O 7611   3.707   6.278   7.474
 2031POPC   C2P 7612   3.801   6.264   7.593
 2032POPC   CN1 7613   4.001   1.111   5.282
 2032POPC   CN2 7614   3.959   1.320   5.387
 2032POPC   CN3 7615   3.930   1.302   5.153
 2032POPC   NTM 7616   4.013   1.255   5.265
 2032POPC    CA 7617   4.157   1.273   5.235
 2032POPC    CB 7618   4.227   1.408   5.254
 2032POPC    OA 7619   4.216   1.447   5.390
 2032POPC     P 7620   4.278   1.589   5.414
 2032POPC    OB 7621   4.202   1.661   5.309
 2032POPC    OC 7622   4.415   1.540   5.396
 2032POPC    OD 7623   4.221   1.604   5.560
 2032POPC    CC 7624   4.254   1.505   5.657
 2032POPC    CD 7625   4.129   1.434   5.714
 2032POPC    OE 7626   4.056   1.507   5.816
 2032POPC   C1A 7627   3.929   1.540   5.793
 2032POPC    OF 7628   3.874   1.504   5.689
 2032POPC   C1B 7629   3.873   1.626   5.901
 2032POPC   C1C 7630   3.731   1.591   5.950
 2032POPC   C1D 7631   3.694   1.666   6.079
 2032POPC   C1E 7632   3.563   1.621   6.146
 2032POPC   C1F 7633   3.587   1.528   6.267
 2032POPC   C1G 7634   3.461   1.495   6.348
 2032POPC   C1H 7635   3.492   1.416   6.476
 2032POPC   C1I 7636   3.363   1.381   6.550
 2032POPC   C1J 7637   3.345   1.390   6.681
 2032POPC   C1K 7638   3.451   1.438   6.782
 2032POPC   C1L 7639   3.400   1.449   6.927
 2032POPC   C1M 7640   3.339   1.318   6.978
 2032POPC   C1N 7641   3.359   1.281   7.126
 2032POPC   C1O 7642   3.280   1.362   7.228
 2032POPC   C1P 7643   3.280   1.297   7.368
 2032POPC   C1Q 7644   3.420   1.278   7.428
 2032POPC   C1R 7645   3.413   1.233   7.574
 2032POPC    CE 7646   4.170   1.291   5.754
 2032POPC    OG 7647   4.274   1.280   5.851
 2032POPC   C2A 7648   4.241   1.219   5.965
 2032POPC    OH 7649   4.143   1.144   5.968
 2032POPC   C2B 7650   4.340   1.238   6.073
 2032POPC   C2C 7651   4.277   1.231   6.212
 2032POPC   C2D 7652   4.357   1.312   6.314
 2032POPC   C2E 7653   4.298   1.300   6.455
 2032POPC   C2F 7654   4.366   1.395   6.555
 2032POPC   C2G 7655   4.306   1.377   6.694
 2032POPC   C2H 7656   4.373   1.461   6.804
 2032POPC   C2I 7657   4.296   1.436   6.934
 2032POPC   C2J 7658   4.364   1.476   7.065
 2032POPC   C2K 7659   4.366   1.624   7.101
 2032POPC   C2L 7660   4.394   1.635   7.251
 2032POPC   C2M 7661   4.415   1.779   7.300
 2032POPC   C2N 7662   4.446   1.777   7.450
 2032POPC   C2O 7663   4.463   1.918   7.507
 2032POPC   C2P 7664   4.488   1.913   7.658
 2033POPC   CN1 7665   6.203   0.855   5.222
 2033POPC   CN2 7666   6.132   0.980   5.403
 2033POPC   CN3 7667   6.012   1.005   5.200
 2033POPC   NTM 7668   6.146   0.985   5.256
 2033POPC    CA 7669   6.233   1.097   5.213
 2033POPC    CB 7670   6.177   1.241   5.208
 2033POPC    OA 7671   6.128   1.273   5.336
 2033POPC     P 7672   6.050   1.408   5.346
 2033POPC    OB 7673   5.963   1.396   5.226
 2033POPC    OC 7674   6.148   1.516   5.342
 2033POPC    OD 7675   5.990   1.387   5.489
 2033POPC    CC 7676   6.082   1.353   5.595
 2033POPC    CD 7677   6.068   1.210   5.653
 2033POPC    OE 7678   5.943   1.184   5.721
 2033POPC   C1A 7679   5.893   1.061   5.728
 2033POPC    OF 7680   5.909   0.983   5.633
 2033POPC   C1B 7681   5.778   1.060   5.821
 2033POPC   C1C 7682   5.755   0.939   5.910
 2033POPC   C1D 7683   5.788   0.965   6.058
 2033POPC   C1E 7684   5.684   0.894   6.145
 2033POPC   C1F 7685   5.713   0.901   6.295
 2033POPC   C1G 7686   5.603   0.825   6.370
 2033POPC   C1H 7687   5.633   0.808   6.519
 2033POPC   C1I 7688   5.525   0.721   6.585
 2033POPC   C1J 7689   5.497   0.734   6.714
 2033POPC   C1K 7690   5.574   0.835   6.800
 2033POPC   C1L 7691   5.575   0.802   6.950
 2033POPC   C1M 7692   5.645   0.670   6.982
 2033POPC   C1N 7693   5.668   0.645   7.131
 2033POPC   C1O 7694   5.538   0.642   7.213
 2033POPC   C1P 7695   5.559   0.577   7.351
 2033POPC   C1Q 7696   5.658   0.651   7.440
 2033POPC   C1R 7697   5.667   0.584   7.577
 2033POPC    CE 7698   6.192   1.179   5.739
 2033POPC    OG 7699   6.203   1.240   5.868
 2033POPC   C2A 7700   6.148   1.177   5.972
 2033POPC    OH 7701   6.099   1.065   5.961
 2033POPC   C2B 7702   6.179   1.246   6.099
 2033POPC   C2C 7703   6.075   1.242   6.210
 2033POPC   C2D 7704   6.123   1.334   6.322
 2033POPC   C2E 7705   6.047   1.309   6.451
 2033POPC   C2F 7706   6.088   1.405   6.563
 2033POPC   C2G 7707   6.019   1.364   6.693
 2033POPC   C2H 7708   6.041   1.465   6.804
 2033POPC   C2I 7709   5.959   1.426   6.927
 2033POPC   C2J 7710   5.988   1.517   7.047
 2033POPC   C2K 7711   5.898   1.476   7.164
 2033POPC   C2L 7712   5.925   1.559   7.289
 2033POPC   C2M 7713   5.815   1.533   7.392
 2033POPC   C2N 7714   5.836   1.618   7.517
 2033POPC   C2O 7715   5.712   1.617   7.607
 2033POPC   C2P 7716   5.733   1.708   7.728
 2034POPC   CN1 7717   2.725   1.840   5.234
 2034POPC   CN2 7718   2.824   1.692   5.384
 2034POPC   CN3 7719   2.930   1.722   5.178
 2034POPC   NTM 7720   2.797   1.713   5.242
 2034POPC    CA 7721   2.713   1.608   5.179
 2034POPC    CB 7722   2.754   1.458   5.177
 2034POPC    OA 7723   2.737   1.391   5.300
 2034POPC     P 7724   2.866   1.306   5.335
 2034POPC    OB 7725   2.970   1.408   5.326
 2034POPC    OC 7726   2.852   1.211   5.223
 2034POPC    OD 7727   2.824   1.249   5.475
 2034POPC    CC 7728   2.743   1.320   5.569
 2034POPC    CD 7729   2.765   1.457   5.637
 2034POPC    OE 7730   2.886   1.477   5.714
 2034POPC   C1A 7731   2.926   1.601   5.740
 2034POPC    OF 7732   2.878   1.695   5.675
 2034POPC   C1B 7733   3.046   1.607   5.827
 2034POPC   C1C 7734   3.056   1.727   5.922
 2034POPC   C1D 7735   2.962   1.722   6.043
 2034POPC   C1E 7736   3.004   1.823   6.150
 2034POPC   C1F 7737   2.914   1.818   6.274
 2034POPC   C1G 7738   2.962   1.913   6.384
 2034POPC   C1H 7739   2.879   1.898   6.513
 2034POPC   C1I 7740   2.920   2.005   6.614
 2034POPC   C1J 7741   2.934   1.979   6.744
 2034POPC   C1K 7742   2.910   1.839   6.802
 2034POPC   C1L 7743   2.907   1.836   6.956
 2034POPC   C1M 7744   2.789   1.916   7.012
 2034POPC   C1N 7745   2.766   1.896   7.163
 2034POPC   C1O 7746   2.869   1.963   7.254
 2034POPC   C1P 7747   2.814   1.978   7.397
 2034POPC   C1Q 7748   2.782   1.845   7.465
 2034POPC   C1R 7749   2.715   1.867   7.600
 2034POPC    CE 7750   2.633   1.494   5.709
 2034POPC    OG 7751   2.542   1.391   5.754
 2034POPC   C2A 7752   2.503   1.403   5.882
 2034POPC    OH 7753   2.505   1.516   5.932
 2034POPC   C2B 7754   2.437   1.284   5.942
 2034POPC   C2C 7755   2.433   1.297   6.095
 2034POPC   C2D 7756   2.417   1.168   6.177
 2034POPC   C2E 7757   2.436   1.205   6.325
 2034POPC   C2F 7758   2.447   1.087   6.423
 2034POPC   C2G 7759   2.493   1.137   6.560
 2034POPC   C2H 7760   2.489   1.026   6.666
 2034POPC   C2I 7761   2.547   1.071   6.801
 2034POPC   C2J 7762   2.534   0.959   6.905
 2034POPC   C2K 7763   2.605   0.995   7.036
 2034POPC   C2L 7764   2.593   0.882   7.139
 2034POPC   C2M 7765   2.675   0.916   7.264
 2034POPC   C2N 7766   2.659   0.811   7.374
 2034POPC   C2O 7767   2.740   0.853   7.497
 2034POPC   C2P 7768   2.709   0.763   7.618
 2035POPC   CN1 7769   3.418   5.653   5.447
 2035POPC   CN2 7770   3.443   5.428   5.480
 2035POPC   CN3 7771   3.447   5.513   5.256
 2035POPC   NTM 7772   3.383   5.525   5.386
 2035POPC    CA 7773   3.234   5.514   5.379
 2035POPC    CB 7774   3.167   5.393   5.309
 2035POPC    OA 7775   3.229   5.273   5.351
 2035POPC     P 7776   3.132   5.156   5.398
 2035POPC    OB 7777   3.225   5.045   5.411
 2035POPC    OC 7778   3.036   5.148   5.286
 2035POPC    OD 7779   3.061   5.199   5.532
 2035POPC    CC 7780   3.096   5.296   5.634
 2035POPC    CD 7781   3.198   5.357   5.732
 2035POPC    OE 7782   3.272   5.261   5.807
 2035POPC   C1A 7783   3.389   5.307   5.850
 2035POPC    OF 7784   3.457   5.370   5.768
 2035POPC   C1B 7785   3.436   5.232   5.966
 2035POPC   C1C 7786   3.373   5.263   6.102
 2035POPC   C1D 7787   3.420   5.388   6.177
 2035POPC   C1E 7788   3.441   5.347   6.323
 2035POPC   C1F 7789   3.483   5.454   6.425
 2035POPC   C1G 7790   3.523   5.382   6.554
 2035POPC   C1H 7791   3.558   5.471   6.674
 2035POPC   C1I 7792   3.665   5.403   6.760
 2035POPC   C1J 7793   3.652   5.346   6.881
 2035POPC   C1K 7794   3.523   5.340   6.963
 2035POPC   C1L 7795   3.542   5.334   7.115
 2035POPC   C1M 7796   3.624   5.450   7.173
 2035POPC   C1N 7797   3.576   5.503   7.309
 2035POPC   C1O 7798   3.577   5.401   7.423
 2035POPC   C1P 7799   3.532   5.465   7.556
 2035POPC   C1Q 7800   3.384   5.505   7.558
 2035POPC   C1R 7801   3.347   5.568   7.692
 2035POPC    CE 7802   3.145   5.482   5.810
 2035POPC    OG 7803   3.015   5.501   5.871
 2035POPC   C2A 7804   3.008   5.507   6.005
 2035POPC    OH 7805   3.109   5.482   6.070
 2035POPC   C2B 7806   2.874   5.537   6.065
 2035POPC   C2C 7807   2.872   5.570   6.216
 2035POPC   C2D 7808   2.801   5.464   6.303
 2035POPC   C2E 7809   2.802   5.487   6.455
 2035POPC   C2F 7810   2.772   5.356   6.530
 2035POPC   C2G 7811   2.790   5.354   6.683
 2035POPC   C2H 7812   2.777   5.212   6.740
 2035POPC   C2I 7813   2.815   5.202   6.888
 2035POPC   C2J 7814   2.767   5.072   6.953
 2035POPC   C2K 7815   2.810   5.059   7.100
 2035POPC   C2L 7816   2.720   4.961   7.177
 2035POPC   C2M 7817   2.774   4.924   7.316
 2035POPC   C2N 7818   2.666   4.855   7.399
 2035POPC   C2O 7819   2.722   4.793   7.528
 2035POPC   C2P 7820   2.610   4.740   7.618
 2036POPC   CN1 7821   3.181   2.141   5.352
 2036POPC   CN2 7822   3.011   2.281   5.434
 2036POPC   CN3 7823   3.047   2.265   5.195
 2036POPC   NTM 7824   3.112   2.269   5.327
 2036POPC    CA 7825   3.213   2.377   5.334
 2036POPC    CB 7826   3.179   2.523   5.292
 2036POPC    OA 7827   3.065   2.576   5.358
 2036POPC     P 7828   3.073   2.734   5.383
 2036POPC    OB 7829   2.977   2.778   5.280
 2036POPC    OC 7830   3.216   2.764   5.378
 2036POPC    OD 7831   3.014   2.736   5.528
 2036POPC    CC 7832   3.100   2.691   5.634
 2036POPC    CD 7833   3.058   2.553   5.688
 2036POPC    OE 7834   2.943   2.557   5.774
 2036POPC   C1A 7835   2.854   2.458   5.766
 2036POPC    OF 7836   2.842   2.397   5.658
 2036POPC   C1B 7837   2.768   2.454   5.886
 2036POPC   C1C 7838   2.712   2.315   5.920
 2036POPC   C1D 7839   2.728   2.285   6.069
 2036POPC   C1E 7840   2.626   2.183   6.121
 2036POPC   C1F 7841   2.641   2.162   6.272
 2036POPC   C1G 7842   2.516   2.100   6.337
 2036POPC   C1H 7843   2.526   2.101   6.491
 2036POPC   C1I 7844   2.399   2.046   6.557
 2036POPC   C1J 7845   2.354   2.087   6.675
 2036POPC   C1K 7846   2.426   2.195   6.757
 2036POPC   C1L 7847   2.393   2.198   6.907
 2036POPC   C1M 7848   2.440   2.072   6.981
 2036POPC   C1N 7849   2.453   2.090   7.133
 2036POPC   C1O 7850   2.321   2.109   7.209
 2036POPC   C1P 7851   2.339   2.087   7.360
 2036POPC   C1Q 7852   2.434   2.188   7.426
 2036POPC   C1R 7853   2.450   2.159   7.576
 2036POPC    CE 7854   3.181   2.480   5.747
 2036POPC    OG 7855   3.236   2.522   5.872
 2036POPC   C2A 7856   3.187   2.464   5.982
 2036POPC    OH 7857   3.117   2.362   5.973
 2036POPC   C2B 7858   3.249   2.516   6.105
 2036POPC   C2C 7859   3.152   2.528   6.223
 2036POPC   C2D 7860   3.223   2.594   6.341
 2036POPC   C2E 7861   3.131   2.613   6.461
 2036POPC   C2F 7862   3.204   2.686   6.574
 2036POPC   C2G 7863   3.112   2.708   6.694
 2036POPC   C2H 7864   3.185   2.784   6.805
 2036POPC   C2I 7865   3.088   2.812   6.921
 2036POPC   C2J 7866   3.155   2.893   7.032
 2036POPC   C2K 7867   3.047   2.935   7.132
 2036POPC   C2L 7868   3.099   3.022   7.247
 2036POPC   C2M 7869   2.979   3.078   7.322
 2036POPC   C2N 7870   3.014   3.151   7.451
 2036POPC   C2O 7871   2.885   3.203   7.515
 2036POPC   C2P 7872   2.910   3.258   7.656
 2037POPC   CN1 7873   2.923   0.365   5.360
 2037POPC   CN2 7874   2.737   0.299   5.484
 2037POPC   CN3 7875   2.763   0.211   5.267
 2037POPC   NTM 7876   2.781   0.333   5.348
 2037POPC    CA 7877   2.711   0.450   5.290
 2037POPC    CB 7878   2.560   0.442   5.256
 2037POPC    OA 7879   2.484   0.420   5.372
 2037POPC     P 7880   2.350   0.339   5.347
 2037POPC    OB 7881   2.408   0.224   5.276
 2037POPC    OC 7882   2.276   0.442   5.273
 2037POPC    OD 7883   2.308   0.314   5.497
 2037POPC    CC 7884   2.321   0.419   5.593
 2037POPC    CD 7885   2.445   0.403   5.684
 2037POPC    OE 7886   2.417   0.331   5.805
 2037POPC   C1A 7887   2.517   0.278   5.874
 2037POPC    OF 7888   2.628   0.263   5.820
 2037POPC   C1B 7889   2.467   0.232   6.005
 2037POPC   C1C 7890   2.565   0.210   6.119
 2037POPC   C1D 7891   2.640   0.326   6.186
 2037POPC   C1E 7892   2.728   0.256   6.290
 2037POPC   C1F 7893   2.799   0.339   6.397
 2037POPC   C1G 7894   2.865   0.240   6.492
 2037POPC   C1H 7895   2.925   0.305   6.618
 2037POPC   C1I 7896   2.981   0.197   6.712
 2037POPC   C1J 7897   2.931   0.180   6.834
 2037POPC   C1K 7898   2.816   0.268   6.886
 2037POPC   C1L 7899   2.814   0.284   7.038
 2037POPC   C1M 7900   2.936   0.362   7.090
 2037POPC   C1N 7901   2.924   0.406   7.237
 2037POPC   C1O 7902   2.930   0.288   7.334
 2037POPC   C1P 7903   2.963   0.332   7.478
 2037POPC   C1Q 7904   2.850   0.410   7.545
 2037POPC   C1R 7905   2.890   0.444   7.689
 2037POPC    CE 7906   2.502   0.544   5.709
 2037POPC    OG 7907   2.425   0.629   5.794
 2037POPC   C2A 7908   2.453   0.618   5.925
 2037POPC    OH 7909   2.558   0.565   5.962
 2037POPC   C2B 7910   2.359   0.690   6.013
 2037POPC   C2C 7911   2.370   0.641   6.158
 2037POPC   C2D 7912   2.290   0.731   6.252
 2037POPC   C2E 7913   2.305   0.683   6.396
 2037POPC   C2F 7914   2.218   0.766   6.489
 2037POPC   C2G 7915   2.218   0.708   6.630
 2037POPC   C2H 7916   2.123   0.787   6.721
 2037POPC   C2I 7917   2.104   0.713   6.853
 2037POPC   C2J 7918   2.004   0.785   6.943
 2037POPC   C2K 7919   1.971   0.696   7.063
 2037POPC   C2L 7920   1.873   0.763   7.160
 2037POPC   C2M 7921   1.833   0.659   7.265
 2037POPC   C2N 7922   1.746   0.715   7.378
 2037POPC   C2O 7923   1.713   0.601   7.474
 2037POPC   C2P 7924   1.636   0.651   7.597
 2038POPC   CN1 7925   3.796   3.618   5.389
 2038POPC   CN2 7926   3.659   3.452   5.486
 2038POPC   CN3 7927   3.783   3.401   5.293
 2038POPC   NTM 7928   3.705   3.507   5.357
 2038POPC    CA 7929   3.598   3.555   5.267
 2038POPC    CB 7930   3.458   3.488   5.263
 2038POPC    OA 7931   3.378   3.519   5.376
 2038POPC     P 7932   3.267   3.408   5.403
 2038POPC    OB 7933   3.345   3.286   5.377
 2038POPC    OC 7934   3.169   3.452   5.301
 2038POPC    OD 7935   3.232   3.431   5.554
 2038POPC    CC 7936   3.256   3.553   5.627
 2038POPC    CD 7937   3.385   3.554   5.713
 2038POPC    OE 7938   3.382   3.459   5.821
 2038POPC   C1A 7939   3.488   3.382   5.840
 2038POPC    OF 7940   3.586   3.392   5.765
 2038POPC   C1B 7941   3.464   3.279   5.943
 2038POPC   C1C 7942   3.585   3.253   6.033
 2038POPC   C1D 7943   3.605   3.361   6.139
 2038POPC   C1E 7944   3.711   3.312   6.238
 2038POPC   C1F 7945   3.711   3.392   6.368
 2038POPC   C1G 7946   3.795   3.319   6.472
 2038POPC   C1H 7947   3.777   3.378   6.612
 2038POPC   C1I 7948   3.856   3.299   6.716
 2038POPC   C1J 7949   3.814   3.291   6.842
 2038POPC   C1K 7950   3.686   3.365   6.884
 2038POPC   C1L 7951   3.672   3.385   7.035
 2038POPC   C1M 7952   3.782   3.475   7.094
 2038POPC   C1N 7953   3.762   3.505   7.242
 2038POPC   C1O 7954   3.766   3.381   7.333
 2038POPC   C1P 7955   3.765   3.420   7.481
 2038POPC   C1Q 7956   3.641   3.499   7.522
 2038POPC   C1R 7957   3.653   3.552   7.666
 2038POPC    CE 7958   3.432   3.698   5.747
 2038POPC    OG 7959   3.354   3.795   5.817
 2038POPC   C2A 7960   3.376   3.804   5.949
 2038POPC    OH 7961   3.485   3.768   5.994
 2038POPC   C2B 7962   3.278   3.888   6.024
 2038POPC   C2C 7963   3.308   3.910   6.174
 2038POPC   C2D 7964   3.178   3.922   6.255
 2038POPC   C2E 7965   3.197   3.926   6.408
 2038POPC   C2F 7966   3.074   3.868   6.482
 2038POPC   C2G 7967   3.098   3.849   6.632
 2038POPC   C2H 7968   2.993   3.760   6.700
 2038POPC   C2I 7969   3.024   3.733   6.848
 2038POPC   C2J 7970   2.921   3.644   6.918
 2038POPC   C2K 7971   2.949   3.627   7.068
 2038POPC   C2L 7972   2.819   3.597   7.145
 2038POPC   C2M 7973   2.841   3.580   7.296
 2038POPC   C2N 7974   2.710   3.597   7.373
 2038POPC   C2O 7975   2.729   3.576   7.524
 2038POPC   C2P 7976   2.601   3.605   7.602
 2039POPC   CN1 7977   3.167   5.792   5.097
 2039POPC   CN2 7978   3.240   5.912   5.289
 2039POPC   CN3 7979   3.242   6.017   5.073
 2039POPC   NTM 7980   3.264   5.891   5.145
 2039POPC    CA 7981   3.403   5.848   5.117
 2039POPC    CB 7982   3.523   5.928   5.174
 2039POPC    OA 7983   3.531   5.927   5.316
 2039POPC     P 7984   3.660   6.010   5.360
 2039POPC    OB 7985   3.660   6.127   5.269
 2039POPC    OC 7986   3.754   5.899   5.339
 2039POPC    OD 7987   3.619   6.044   5.506
 2039POPC    CC 7988   3.614   5.941   5.604
 2039POPC    CD 7989   3.496   5.959   5.702
 2039POPC    OE 7990   3.519   6.049   5.813
 2039POPC   C1A 7991   3.412   6.089   5.884
 2039POPC    OF 7992   3.301   6.047   5.853
 2039POPC   C1B 7993   3.443   6.183   5.994
 2039POPC   C1C 7994   3.322   6.251   6.060
 2039POPC   C1D 7995   3.247   6.155   6.154
 2039POPC   C1E 7996   3.148   6.224   6.248
 2039POPC   C1F 7997   3.082   6.121   6.340
 2039POPC   C1G 7998   3.044   6.181   6.475
 2039POPC   C1H 7999   3.018   6.074   6.582
 2039POPC   C1I 8000   3.086   6.121   6.711
 2039POPC   C1J 8001   3.109   6.049   6.821
 2039POPC   C1K 8002   3.064   5.905   6.847
 2039POPC   C1L 8003   3.048   5.882   6.999
 2039POPC   C1M 8004   2.954   5.766   7.035
 2039POPC   C1N 8005   2.951   5.726   7.183
 2039POPC   C1O 8006   2.917   5.839   7.280
 2039POPC   C1P 8007   2.888   5.792   7.423
 2039POPC   C1Q 8008   3.007   5.727   7.493
 2039POPC   C1R 8009   2.975   5.697   7.640
 2039POPC    CE 8010   3.447   5.819   5.743
 2039POPC    OG 8011   3.548   5.723   5.777
 2039POPC   C2A 8012   3.514   5.653   5.885
 2039POPC    OH 8013   3.396   5.620   5.900
 2039POPC   C2B 8014   3.628   5.605   5.964
 2039POPC   C2C 8015   3.642   5.690   6.091
 2039POPC   C2D 8016   3.748   5.632   6.184
 2039POPC   C2E 8017   3.750   5.708   6.316
 2039POPC   C2F 8018   3.843   5.641   6.418
 2039POPC   C2G 8019   3.834   5.716   6.551
 2039POPC   C2H 8020   3.915   5.649   6.661
 2039POPC   C2I 8021   3.885   5.719   6.794
 2039POPC   C2J 8022   3.957   5.655   6.912
 2039POPC   C2K 8023   3.922   5.731   7.040
 2039POPC   C2L 8024   4.003   5.680   7.159
 2039POPC   C2M 8025   3.981   5.768   7.281
 2039POPC   C2N 8026   4.082   5.733   7.390
 2039POPC   C2O 8027   4.067   5.826   7.511
 2039POPC   C2P 8028   4.181   5.805   7.610
 2040POPC   CN1 8029   2.369   4.379   5.138
 2040POPC   CN2 8030   2.253   4.291   5.327
 2040POPC   CN3 8031   2.244   4.176   5.121
 2040POPC   NTM 8032   2.247   4.309   5.181
 2040POPC    CA 8033   2.124   4.376   5.132
 2040POPC    CB 8034   1.988   4.360   5.202
 2040POPC    OA 8035   1.974   4.449   5.312
 2040POPC     P 8036   1.820   4.462   5.356
 2040POPC    OB 8037   1.743   4.373   5.267
 2040POPC    OC 8038   1.810   4.606   5.334
 2040POPC    OD 8039   1.840   4.408   5.502
 2040POPC    CC 8040   1.913   4.483   5.599
 2040POPC    CD 8041   1.979   4.393   5.705
 2040POPC    OE 8042   1.887   4.352   5.807
 2040POPC   C1A 8043   1.891   4.222   5.836
 2040POPC    OF 8044   1.965   4.147   5.773
 2040POPC   C1B 8045   1.789   4.182   5.933
 2040POPC   C1C 8046   1.835   4.063   6.017
 2040POPC   C1D 8047   1.950   4.093   6.114
 2040POPC   C1E 8048   1.967   3.968   6.200
 2040POPC   C1F 8049   2.041   3.993   6.331
 2040POPC   C1G 8050   2.030   3.864   6.413
 2040POPC   C1H 8051   2.054   3.888   6.562
 2040POPC   C1I 8052   1.936   3.828   6.639
 2040POPC   C1J 8053   1.925   3.847   6.770
 2040POPC   C1K 8054   2.037   3.921   6.844
 2040POPC   C1L 8055   2.027   3.898   6.995
 2040POPC   C1M 8056   2.161   3.930   7.062
 2040POPC   C1N 8057   2.177   3.868   7.201
 2040POPC   C1O 8058   2.067   3.907   7.301
 2040POPC   C1P 8059   2.107   3.866   7.443
 2040POPC   C1Q 8060   1.998   3.900   7.545
 2040POPC   C1R 8061   2.045   3.878   7.688
 2040POPC    CE 8062   2.118   4.443   5.755
 2040POPC    OG 8063   2.142   4.557   5.840
 2040POPC   C2A 8064   2.138   4.534   5.972
 2040POPC    OH 8065   2.139   4.419   6.015
 2040POPC   C2B 8066   2.152   4.656   6.055
 2040POPC   C2C 8067   2.149   4.630   6.207
 2040POPC   C2D 8068   2.070   4.736   6.284
 2040POPC   C2E 8069   2.036   4.700   6.429
 2040POPC   C2F 8070   1.941   4.802   6.492
 2040POPC   C2G 8071   1.892   4.762   6.631
 2040POPC   C2H 8072   1.820   4.877   6.703
 2040POPC   C2I 8073   1.753   4.827   6.832
 2040POPC   C2J 8074   1.699   4.937   6.924
 2040POPC   C2K 8075   1.620   4.869   7.035
 2040POPC   C2L 8076   1.576   4.955   7.154
 2040POPC   C2M 8077   1.495   4.866   7.248
 2040POPC   C2N 8078   1.454   4.931   7.380
 2040POPC   C2O 8079   1.370   4.833   7.461
 2040POPC   C2P 8080   1.329   4.891   7.597
 2041POPC   CN1 8081   2.303   5.622   5.180
 2041POPC   CN2 8082   2.159   5.540   5.348
 2041POPC   CN3 8083   2.177   5.426   5.136
 2041POPC   NTM 8084   2.173   5.557   5.202
 2041POPC    CA 8085   2.064   5.635   5.139
 2041POPC    CB 8086   1.916   5.599   5.164
 2041POPC    OA 8087   1.878   5.625   5.298
 2041POPC     P 8088   1.749   5.541   5.335
 2041POPC    OB 8089   1.788   5.406   5.294
 2041POPC    OC 8090   1.649   5.611   5.253
 2041POPC    OD 8091   1.731   5.565   5.489
 2041POPC    CC 8092   1.797   5.673   5.557
 2041POPC    CD 8093   1.925   5.641   5.636
 2041POPC    OE 8094   1.906   5.535   5.731
 2041POPC   C1A 8095   2.015   5.475   5.777
 2041POPC    OF 8096   2.116   5.471   5.705
 2041POPC   C1B 8097   1.978   5.395   5.895
 2041POPC   C1C 8098   2.073   5.408   6.013
 2041POPC   C1D 8099   2.100   5.545   6.076
 2041POPC   C1E 8100   2.143   5.515   6.220
 2041POPC   C1F 8101   2.213   5.622   6.301
 2041POPC   C1G 8102   2.240   5.560   6.439
 2041POPC   C1H 8103   2.317   5.648   6.537
 2041POPC   C1I 8104   2.435   5.569   6.596
 2041POPC   C1J 8105   2.466   5.575   6.725
 2041POPC   C1K 8106   2.382   5.661   6.819
 2041POPC   C1L 8107   2.397   5.626   6.968
 2041POPC   C1M 8108   2.539   5.644   7.021
 2041POPC   C1N 8109   2.546   5.709   7.159
 2041POPC   C1O 8110   2.480   5.627   7.271
 2041POPC   C1P 8111   2.496   5.701   7.404
 2041POPC   C1Q 8112   2.413   5.636   7.515
 2041POPC   C1R 8113   2.428   5.712   7.646
 2041POPC    CE 8114   1.989   5.769   5.696
 2041POPC    OG 8115   1.909   5.875   5.752
 2041POPC   C2A 8116   1.936   5.908   5.881
 2041POPC    OH 8117   2.015   5.838   5.942
 2041POPC   C2B 8118   1.851   6.016   5.942
 2041POPC   C2C 8119   1.840   6.003   6.095
 2041POPC   C2D 8120   1.721   6.069   6.165
 2041POPC   C2E 8121   1.716   6.018   6.310
 2041POPC   C2F 8122   1.601   6.060   6.403
 2041POPC   C2G 8123   1.612   5.981   6.534
 2041POPC   C2H 8124   1.523   6.031   6.649
 2041POPC   C2I 8125   1.554   5.960   6.781
 2041POPC   C2J 8126   1.487   6.030   6.899
 2041POPC   C2K 8127   1.510   5.959   7.033
 2041POPC   C2L 8128   1.431   6.027   7.145
 2041POPC   C2M 8129   1.442   5.953   7.279
 2041POPC   C2N 8130   1.337   6.004   7.378
 2041POPC   C2O 8131   1.347   5.932   7.513
 2041POPC   C2P 8132   1.225   5.962   7.601
 2042POPC   CN1 8133   0.690   2.646   5.410
 2042POPC   CN2 8134   0.707   2.877   5.422
 2042POPC   CN3 8135   0.613   2.782   5.229
 2042POPC   NTM 8136   0.718   2.764   5.328
 2042POPC    CA 8137   0.846   2.746   5.255
 2042POPC    CB 8138   0.961   2.849   5.263
 2042POPC    OA 8139   1.018   2.854   5.392
 2042POPC     P 8140   1.076   2.998   5.422
 2042POPC    OB 8141   0.962   3.082   5.388
 2042POPC    OC 8142   1.190   3.006   5.329
 2042POPC    OD 8143   1.110   2.995   5.575
 2042POPC    CC 8144   1.090   2.880   5.657
 2042POPC    CD 8145   0.950   2.829   5.698
 2042POPC    OE 8146   0.880   2.914   5.791
 2042POPC   C1A 8147   0.749   2.897   5.810
 2042POPC    OF 8148   0.687   2.818   5.739
 2042POPC   C1B 8149   0.695   2.995   5.907
 2042POPC   C1C 8150   0.601   2.938   6.013
 2042POPC   C1D 8151   0.674   2.861   6.123
 2042POPC   C1E 8152   0.579   2.835   6.239
 2042POPC   C1F 8153   0.654   2.776   6.358
 2042POPC   C1G 8154   0.567   2.780   6.484
 2042POPC   C1H 8155   0.651   2.743   6.606
 2042POPC   C1I 8156   0.572   2.767   6.734
 2042POPC   C1J 8157   0.615   2.715   6.849
 2042POPC   C1K 8158   0.743   2.631   6.853
 2042POPC   C1L 8159   0.798   2.615   6.996
 2042POPC   C1M 8160   0.699   2.540   7.085
 2042POPC   C1N 8161   0.750   2.527   7.229
 2042POPC   C1O 8162   0.628   2.517   7.320
 2042POPC   C1P 8163   0.656   2.512   7.470
 2042POPC   C1Q 8164   0.733   2.389   7.517
 2042POPC   C1R 8165   0.740   2.388   7.670
 2042POPC    CE 8166   0.970   2.685   5.747
 2042POPC    OG 8167   1.063   2.675   5.856
 2042POPC   C2A 8168   1.011   2.642   5.974
 2042POPC    OH 8169   0.901   2.586   5.981
 2042POPC   C2B 8170   1.111   2.654   6.082
 2042POPC   C2C 8171   1.069   2.598   6.218
 2042POPC   C2D 8172   1.196   2.574   6.298
 2042POPC   C2E 8173   1.175   2.556   6.449
 2042POPC   C2F 8174   1.312   2.565   6.515
 2042POPC   C2G 8175   1.305   2.627   6.655
 2042POPC   C2H 8176   1.437   2.696   6.691
 2042POPC   C2I 8177   1.423   2.769   6.825
 2042POPC   C2J 8178   1.556   2.805   6.891
 2042POPC   C2K 8179   1.525   2.857   7.031
 2042POPC   C2L 8180   1.643   2.845   7.128
 2042POPC   C2M 8181   1.591   2.879   7.268
 2042POPC   C2N 8182   1.695   2.860   7.379
 2042POPC   C2O 8183   1.632   2.894   7.514
 2042POPC   C2P 8184   1.731   2.872   7.629
 2043POPC   CN1 8185   1.897   3.237   5.293
 2043POPC   CN2 8186   1.752   3.301   5.462
 2043POPC   CN3 8187   1.664   3.233   5.253
 2043POPC   NTM 8188   1.772   3.308   5.317
 2043POPC    CA 8189   1.786   3.450   5.273
 2043POPC    CB 8190   1.665   3.548   5.268
 2043POPC    OA 8191   1.606   3.576   5.394
 2043POPC     P 8192   1.449   3.570   5.392
 2043POPC    OB 8193   1.430   3.433   5.342
 2043POPC    OC 8194   1.399   3.676   5.303
 2043POPC    OD 8195   1.395   3.584   5.538
 2043POPC    CC 8196   1.484   3.628   5.642
 2043POPC    CD 8197   1.584   3.525   5.699
 2043POPC    OE 8198   1.531   3.442   5.805
 2043POPC   C1A 8199   1.586   3.322   5.823
 2043POPC    OF 8200   1.662   3.275   5.738
 2043POPC   C1B 8201   1.526   3.247   5.935
 2043POPC   C1C 8202   1.623   3.159   6.014
 2043POPC   C1D 8203   1.696   3.234   6.126
 2043POPC   C1E 8204   1.758   3.130   6.220
 2043POPC   C1F 8205   1.813   3.189   6.350
 2043POPC   C1G 8206   1.837   3.075   6.449
 2043POPC   C1H 8207   1.885   3.122   6.586
 2043POPC   C1I 8208   1.878   3.004   6.684
 2043POPC   C1J 8209   1.863   3.021   6.815
 2043POPC   C1K 8210   1.858   3.160   6.878
 2043POPC   C1L 8211   1.871   3.160   7.031
 2043POPC   C1M 8212   1.999   3.092   7.082
 2043POPC   C1N 8213   2.047   3.143   7.219
 2043POPC   C1O 8214   1.943   3.134   7.331
 2043POPC   C1P 8215   2.004   3.185   7.462
 2043POPC   C1Q 8216   1.898   3.200   7.572
 2043POPC   C1R 8217   1.959   3.258   7.700
 2043POPC    CE 8218   1.712   3.602   5.734
 2043POPC    OG 8219   1.692   3.705   5.831
 2043POPC   C2A 8220   1.713   3.668   5.957
 2043POPC    OH 8221   1.788   3.574   5.985
 2043POPC   C2B 8222   1.657   3.767   6.051
 2043POPC   C2C 8223   1.640   3.718   6.194
 2043POPC   C2D 8224   1.593   3.837   6.277
 2043POPC   C2E 8225   1.580   3.800   6.424
 2043POPC   C2F 8226   1.531   3.919   6.505
 2043POPC   C2G 8227   1.508   3.874   6.649
 2043POPC   C2H 8228   1.444   3.984   6.734
 2043POPC   C2I 8229   1.406   3.923   6.869
 2043POPC   C2J 8230   1.331   4.021   6.958
 2043POPC   C2K 8231   1.282   3.947   7.082
 2043POPC   C2L 8232   1.203   4.038   7.175
 2043POPC   C2M 8233   1.148   3.957   7.292
 2043POPC   C2N 8234   1.069   4.046   7.389
 2043POPC   C2O 8235   1.013   3.963   7.504
 2043POPC   C2P 8236   0.936   4.052   7.602
 2044POPC   CN1 8237   6.036   3.042   5.273
 2044POPC   CN2 8238   5.907   3.188   5.405
 2044POPC   CN3 8239   5.823   3.118   5.197
 2044POPC   NTM 8240   5.945   3.158   5.266
 2044POPC    CA 8241   6.013   3.269   5.194
 2044POPC    CB 8242   5.954   3.412   5.191
 2044POPC    OA 8243   5.957   3.475   5.317
 2044POPC     P 8244   5.841   3.582   5.330
 2044POPC    OB 8245   5.723   3.511   5.278
 2044POPC    OC 8246   5.899   3.691   5.252
 2044POPC    OD 8247   5.830   3.606   5.485
 2044POPC    CC 8248   5.946   3.595   5.569
 2044POPC    CD 8249   5.962   3.460   5.643
 2044POPC    OE 8250   5.862   3.435   5.745
 2044POPC   C1A 8251   5.835   3.309   5.776
 2044POPC    OF 8252   5.864   3.221   5.693
 2044POPC   C1B 8253   5.736   3.299   5.885
 2044POPC   C1C 8254   5.747   3.173   5.972
 2044POPC   C1D 8255   5.854   3.180   6.081
 2044POPC   C1E 8256   5.828   3.065   6.179
 2044POPC   C1F 8257   5.919   3.066   6.302
 2044POPC   C1G 8258   5.871   2.957   6.399
 2044POPC   C1H 8259   5.948   2.955   6.531
 2044POPC   C1I 8260   5.893   2.846   6.624
 2044POPC   C1J 8261   5.890   2.861   6.756
 2044POPC   C1K 8262   5.944   2.990   6.820
 2044POPC   C1L 8263   5.953   2.985   6.973
 2044POPC   C1M 8264   6.064   2.893   7.026
 2044POPC   C1N 8265   6.098   2.919   7.173
 2044POPC   C1O 8266   5.980   2.898   7.269
 2044POPC   C1P 8267   6.020   2.908   7.417
 2044POPC   C1Q 8268   6.082   3.042   7.456
 2044POPC   C1R 8269   6.103   3.052   7.607
 2044POPC    CE 8270   6.110   3.434   5.680
 2044POPC    OG 8271   6.188   3.515   5.769
 2044POPC   C2A 8272   6.198   3.467   5.894
 2044POPC    OH 8273   6.167   3.350   5.915
 2044POPC   C2B 8274   6.266   3.557   5.991
 2044POPC   C2C 8275   6.222   3.530   6.136
 2044POPC   C2D 8276   6.268   3.636   6.237
 2044POPC   C2E 8277   6.213   3.604   6.376
 2044POPC   C2F 8278   6.216   3.723   6.472
 2044POPC   C2G 8279   6.149   3.690   6.606
 2044POPC   C2H 8280   6.147   3.810   6.701
 2044POPC   C2I 8281   6.084   3.778   6.837
 2044POPC   C2J 8282   6.098   3.896   6.933
 2044POPC   C2K 8283   6.024   3.872   7.066
 2044POPC   C2L 8284   6.043   3.990   7.162
 2044POPC   C2M 8285   5.968   3.969   7.293
 2044POPC   C2N 8286   5.994   4.084   7.391
 2044POPC   C2O 8287   5.910   4.069   7.517
 2044POPC   C2P 8288   5.932   4.186   7.613
 2045POPC   CN1 8289   3.822   0.491   5.339
 2045POPC   CN2 8290   3.671   0.636   5.446
 2045POPC   CN3 8291   3.608   0.537   5.241
 2045POPC   NTM 8292   3.722   0.595   5.314
 2045POPC    CA 8293   3.784   0.701   5.231
 2045POPC    CB 8294   3.732   0.847   5.233
 2045POPC    OA 8295   3.778   0.917   5.347
 2045POPC     P 8296   3.674   1.027   5.394
 2045POPC    OB 8297   3.559   0.942   5.421
 2045POPC    OC 8298   3.672   1.107   5.270
 2045POPC    OD 8299   3.765   1.091   5.505
 2045POPC    CC 8300   3.825   1.017   5.614
 2045POPC    CD 8301   3.756   0.899   5.685
 2045POPC    OE 8302   3.632   0.932   5.752
 2045POPC   C1A 8303   3.551   0.831   5.785
 2045POPC    OF 8304   3.561   0.725   5.723
 2045POPC   C1B 8305   3.439   0.873   5.874
 2045POPC   C1C 8306   3.389   0.764   5.971
 2045POPC   C1D 8307   3.474   0.743   6.098
 2045POPC   C1E 8308   3.404   0.641   6.189
 2045POPC   C1F 8309   3.469   0.621   6.326
 2045POPC   C1G 8310   3.388   0.520   6.408
 2045POPC   C1H 8311   3.438   0.503   6.552
 2045POPC   C1I 8312   3.356   0.396   6.626
 2045POPC   C1J 8313   3.330   0.402   6.757
 2045POPC   C1K 8314   3.381   0.520   6.841
 2045POPC   C1L 8315   3.366   0.504   6.993
 2045POPC   C1M 8316   3.458   0.396   7.052
 2045POPC   C1N 8317   3.477   0.407   7.204
 2045POPC   C1O 8318   3.346   0.401   7.284
 2045POPC   C1P 8319   3.368   0.369   7.433
 2045POPC   C1Q 8320   3.451   0.473   7.508
 2045POPC   C1R 8321   3.464   0.437   7.656
 2045POPC    CE 8322   3.862   0.828   5.770
 2045POPC    OG 8323   3.922   0.898   5.880
 2045POPC   C2A 8324   3.908   0.838   5.999
 2045POPC    OH 8325   3.857   0.726   6.007
 2045POPC   C2B 8326   3.971   0.909   6.113
 2045POPC   C2C 8327   3.886   0.901   6.240
 2045POPC   C2D 8328   3.950   0.979   6.355
 2045POPC   C2E 8329   3.854   0.992   6.474
 2045POPC   C2F 8330   3.912   1.083   6.583
 2045POPC   C2G 8331   3.813   1.107   6.697
 2045POPC   C2H 8332   3.870   1.205   6.799
 2045POPC   C2I 8333   3.771   1.229   6.914
 2045POPC   C2J 8334   3.823   1.335   7.013
 2045POPC   C2K 8335   3.713   1.369   7.113
 2045POPC   C2L 8336   3.744   1.485   7.207
 2045POPC   C2M 8337   3.614   1.544   7.262
 2045POPC   C2N 8338   3.632   1.630   7.387
 2045POPC   C2O 8339   3.494   1.666   7.443
 2045POPC   C2P 8340   3.502   1.722   7.585
 2046POPC   CN1 8341   5.346   4.557   5.226
 2046POPC   CN2 8342   5.306   4.685   5.416
 2046POPC   CN3 8343   5.176   4.718   5.216
 2046POPC   NTM 8344   5.310   4.691   5.268
 2046POPC    CA 8345   5.414   4.787   5.222
 2046POPC    CB 8346   5.395   4.941   5.233
 2046POPC    OA 8347   5.387   4.990   5.365
 2046POPC     P 8348   5.265   5.085   5.385
 2046POPC    OB 8349   5.156   4.987   5.381
 2046POPC    OC 8350   5.256   5.180   5.274
 2046POPC    OD 8351   5.268   5.144   5.530
 2046POPC    CC 8352   5.365   5.090   5.621
 2046POPC    CD 8353   5.343   4.947   5.675
 2046POPC    OE 8354   5.226   4.938   5.760
 2046POPC   C1A 8355   5.161   4.822   5.774
 2046POPC    OF 8356   5.167   4.740   5.682
 2046POPC   C1B 8357   5.058   4.830   5.879
 2046POPC   C1C 8358   5.049   4.705   5.967
 2046POPC   C1D 8359   5.113   4.723   6.105
 2046POPC   C1E 8360   5.058   4.616   6.200
 2046POPC   C1F 8361   5.111   4.626   6.343
 2046POPC   C1G 8362   5.026   4.536   6.432
 2046POPC   C1H 8363   5.076   4.527   6.576
 2046POPC   C1I 8364   4.981   4.437   6.655
 2046POPC   C1J 8365   4.964   4.455   6.786
 2046POPC   C1K 8366   5.043   4.564   6.858
 2046POPC   C1L 8367   5.029   4.560   7.011
 2046POPC   C1M 8368   5.072   4.426   7.071
 2046POPC   C1N 8369   5.106   4.430   7.220
 2046POPC   C1O 8370   4.994   4.483   7.310
 2046POPC   C1P 8371   5.011   4.442   7.456
 2046POPC   C1Q 8372   5.142   4.492   7.519
 2046POPC   C1R 8373   5.153   4.449   7.665
 2046POPC    CE 8374   5.477   4.906   5.741
 2046POPC    OG 8375   5.496   4.976   5.863
 2046POPC   C2A 8376   5.453   4.909   5.969
 2046POPC    OH 8377   5.479   4.790   5.983
 2046POPC   C2B 8378   5.390   4.997   6.069
 2046POPC   C2C 8379   5.398   4.940   6.210
 2046POPC   C2D 8380   5.367   5.056   6.304
 2046POPC   C2E 8381   5.398   5.018   6.448
 2046POPC   C2F 8382   5.390   5.146   6.529
 2046POPC   C2G 8383   5.386   5.112   6.677
 2046POPC   C2H 8384   5.354   5.239   6.754
 2046POPC   C2I 8385   5.310   5.199   6.894
 2046POPC   C2J 8386   5.282   5.322   6.980
 2046POPC   C2K 8387   5.219   5.272   7.108
 2046POPC   C2L 8388   5.206   5.382   7.213
 2046POPC   C2M 8389   5.116   5.331   7.326
 2046POPC   C2N 8390   5.114   5.427   7.445
 2046POPC   C2O 8391   5.008   5.390   7.547
 2046POPC   C2P 8392   5.011   5.488   7.665
 2047POPC   CN1 8393   5.365   3.608   5.385
 2047POPC   CN2 8394   5.212   3.758   5.483
 2047POPC   CN3 8395   5.216   3.734   5.243
 2047POPC   NTM 8396   5.298   3.737   5.364
 2047POPC    CA 8397   5.403   3.842   5.355
 2047POPC    CB 8398   5.364   3.983   5.305
 2047POPC    OA 8399   5.247   4.026   5.371
 2047POPC     P 8400   5.214   4.180   5.381
 2047POPC    OB 8401   5.069   4.179   5.395
 2047POPC    OC 8402   5.273   4.226   5.253
 2047POPC    OD 8403   5.312   4.224   5.495
 2047POPC    CC 8404   5.358   4.150   5.611
 2047POPC    CD 8405   5.279   4.056   5.705
 2047POPC    OE 8406   5.169   4.115   5.775
 2047POPC   C1A 8407   5.067   4.034   5.802
 2047POPC    OF 8408   5.051   3.933   5.731
 2047POPC   C1B 8409   4.969   4.096   5.894
 2047POPC   C1C 8410   4.893   3.997   5.982
 2047POPC   C1D 8411   4.964   3.953   6.111
 2047POPC   C1E 8412   4.863   3.880   6.199
 2047POPC   C1F 8413   4.904   3.869   6.346
 2047POPC   C1G 8414   4.787   3.821   6.434
 2047POPC   C1H 8415   4.823   3.820   6.583
 2047POPC   C1I 8416   4.708   3.765   6.668
 2047POPC   C1J 8417   4.706   3.776   6.801
 2047POPC   C1K 8418   4.819   3.841   6.881
 2047POPC   C1L 8419   4.780   3.891   7.021
 2047POPC   C1M 8420   4.732   3.781   7.116
 2047POPC   C1N 8421   4.783   3.802   7.259
 2047POPC   C1O 8422   4.672   3.828   7.361
 2047POPC   C1P 8423   4.714   3.789   7.504
 2047POPC   C1Q 8424   4.827   3.875   7.562
 2047POPC   C1R 8425   4.865   3.831   7.703
 2047POPC    CE 8426   5.379   3.976   5.792
 2047POPC    OG 8427   5.470   4.035   5.886
 2047POPC   C2A 8428   5.471   3.983   6.009
 2047POPC    OH 8429   5.400   3.885   6.034
 2047POPC   C2B 8430   5.568   4.042   6.104
 2047POPC   C2C 8431   5.532   4.024   6.252
 2047POPC   C2D 8432   5.617   4.109   6.348
 2047POPC   C2E 8433   5.541   4.125   6.480
 2047POPC   C2F 8434   5.602   4.219   6.584
 2047POPC   C2G 8435   5.492   4.296   6.659
 2047POPC   C2H 8436   5.534   4.342   6.799
 2047POPC   C2I 8437   5.438   4.446   6.858
 2047POPC   C2J 8438   5.474   4.480   7.003
 2047POPC   C2K 8439   5.403   4.607   7.053
 2047POPC   C2L 8440   5.425   4.628   7.203
 2047POPC   C2M 8441   5.348   4.749   7.256
 2047POPC   C2N 8442   5.367   4.761   7.408
 2047POPC   C2O 8443   5.289   4.878   7.466
 2047POPC   C2P 8444   5.304   4.883   7.618
 2048POPC   CN1 8445   4.361   5.871   5.270
 2048POPC   CN2 8446   4.516   5.991   5.401
 2048POPC   CN3 8447   4.520   6.019   5.163
 2048POPC   NTM 8448   4.498   5.922   5.272
 2048POPC    CA 8449   4.590   5.806   5.262
 2048POPC    CB 8450   4.740   5.828   5.235
 2048POPC    OA 8451   4.790   5.929   5.320
 2048POPC     P 8452   4.917   5.882   5.402
 2048POPC    OB 8453   4.928   6.006   5.476
 2048POPC    OC 8454   4.999   5.851   5.284
 2048POPC    OD 8455   4.842   5.769   5.485
 2048POPC    CC 8456   4.844   5.795   5.626
 2048POPC    CD 8457   4.711   5.847   5.681
 2048POPC    OE 8458   4.732   5.951   5.777
 2048POPC   C1A 8459   4.651   6.055   5.783
 2048POPC    OF 8460   4.565   6.073   5.694
 2048POPC   C1B 8461   4.695   6.148   5.888
 2048POPC   C1C 8462   4.581   6.203   5.973
 2048POPC   C1D 8463   4.538   6.118   6.092
 2048POPC   C1E 8464   4.446   6.207   6.175
 2048POPC   C1F 8465   4.396   6.146   6.306
 2048POPC   C1G 8466   4.323   6.257   6.382
 2048POPC   C1H 8467   4.273   6.212   6.520
 2048POPC   C1I 8468   4.221   6.333   6.597
 2048POPC   C1J 8469   4.237   6.340   6.728
 2048POPC   C1K 8470   4.304   6.222   6.799
 2048POPC   C1L 8471   4.285   6.218   6.951
 2048POPC   C1M 8472   4.139   6.201   6.992
 2048POPC   C1N 8473   4.122   6.140   7.132
 2048POPC   C1O 8474   4.200   6.214   7.241
 2048POPC   C1P 8475   4.154   6.167   7.379
 2048POPC   C1Q 8476   4.239   6.228   7.491
 2048POPC   C1R 8477   4.186   6.187   7.628
 2048POPC    CE 8478   4.628   5.726   5.728
 2048POPC    OG 8479   4.674   5.661   5.847
 2048POPC   C2A 8480   4.640   5.718   5.963
 2048POPC    OH 8481   4.534   5.780   5.971
 2048POPC   C2B 8482   4.718   5.662   6.076
 2048POPC   C2C 8483   4.672   5.708   6.215
 2048POPC   C2D 8484   4.731   5.614   6.321
 2048POPC   C2E 8485   4.707   5.665   6.464
 2048POPC   C2F 8486   4.746   5.559   6.568
 2048POPC   C2G 8487   4.743   5.620   6.709
 2048POPC   C2H 8488   4.799   5.528   6.817
 2048POPC   C2I 8489   4.788   5.599   6.953
 2048POPC   C2J 8490   4.917   5.589   7.035
 2048POPC   C2K 8491   4.907   5.674   7.162
 2048POPC   C2L 8492   5.047   5.705   7.216
 2048POPC   C2M 8493   5.044   5.773   7.353
 2048POPC   C2N 8494   5.187   5.788   7.407
 2048POPC   C2O 8495   5.184   5.828   7.555
 2048POPC   C2P 8496   5.324   5.817   7.617
 2049POPC   CN1 8497   4.197   2.932   5.320
 2049POPC   CN2 8498   4.209   2.733   5.444
 2049POPC   CN3 8499   4.255   2.724   5.213
 2049POPC   NTM 8500   4.169   2.788   5.314
 2049POPC    CA 8501   4.025   2.769   5.282
 2049POPC    CB 8502   3.963   2.627   5.272
 2049POPC    OA 8503   3.971   2.561   5.397
 2049POPC     P 8504   3.951   2.405   5.386
 2049POPC    OB 8505   4.061   2.377   5.292
 2049POPC    OC 8506   3.811   2.399   5.341
 2049POPC    OD 8507   3.977   2.365   5.536
 2049POPC    CC 8508   3.918   2.443   5.641
 2049POPC    CD 8509   4.018   2.542   5.705
 2049POPC    OE 8510   4.105   2.483   5.805
 2049POPC   C1A 8511   4.231   2.527   5.810
 2049POPC    OF 8512   4.270   2.614   5.731
 2049POPC   C1B 8513   4.314   2.445   5.901
 2049POPC   C1C 8514   4.413   2.521   5.989
 2049POPC   C1D 8515   4.345   2.593   6.106
 2049POPC   C1E 8516   4.451   2.634   6.208
 2049POPC   C1F 8517   4.391   2.703   6.331
 2049POPC   C1G 8518   4.504   2.734   6.430
 2049POPC   C1H 8519   4.460   2.813   6.553
 2049POPC   C1I 8520   4.586   2.858   6.628
 2049POPC   C1J 8521   4.615   2.822   6.753
 2049POPC   C1K 8522   4.520   2.740   6.841
 2049POPC   C1L 8523   4.565   2.734   6.989
 2049POPC   C1M 8524   4.596   2.872   7.048
 2049POPC   C1N 8525   4.599   2.879   7.201
 2049POPC   C1O 8526   4.707   2.795   7.268
 2049POPC   C1P 8527   4.715   2.826   7.418
 2049POPC   C1Q 8528   4.587   2.789   7.493
 2049POPC   C1R 8529   4.590   2.838   7.638
 2049POPC    CE 8530   3.941   2.669   5.747
 2049POPC    OG 8531   3.846   2.657   5.854
 2049POPC   C2A 8532   3.889   2.700   5.972
 2049POPC    OH 8533   3.985   2.777   5.981
 2049POPC   C2B 8534   3.795   2.668   6.081
 2049POPC   C2C 8535   3.868   2.632   6.211
 2049POPC   C2D 8536   3.768   2.588   6.317
 2049POPC   C2E 8537   3.840   2.553   6.448
 2049POPC   C2F 8538   3.742   2.497   6.551
 2049POPC   C2G 8539   3.816   2.463   6.680
 2049POPC   C2H 8540   3.725   2.391   6.779
 2049POPC   C2I 8541   3.805   2.355   6.905
 2049POPC   C2J 8542   3.723   2.268   7.000
 2049POPC   C2K 8543   3.806   2.236   7.124
 2049POPC   C2L 8544   3.730   2.145   7.221
 2049POPC   C2M 8545   3.810   2.133   7.351
 2049POPC   C2N 8546   3.737   2.047   7.455
 2049POPC   C2O 8547   3.814   2.053   7.587
 2049POPC   C2P 8548   3.750   1.965   7.694
 2050POPC   CN1 8549   6.291   5.997   5.295
 2050POPC   CN2 8550   6.103   5.942   5.427
 2050POPC   CN3 8551   6.093   5.916   5.187
 2050POPC   NTM 8552   6.145   5.999   5.297
 2050POPC    CA 8553   6.098   6.139   5.279
 2050POPC    CB 8554   5.948   6.176   5.287
 2050POPC    OA 8555   5.895   6.152   5.415
 2050POPC     P 8556   5.739   6.180   5.411
 2050POPC    OB 8557   5.703   6.083   5.308
 2050POPC    OC 8558   5.741   6.325   5.388
 2050POPC    OD 8559   5.708   6.136   5.558
 2050POPC    CC 8560   5.779   6.203   5.661
 2050POPC    CD 8561   5.856   6.097   5.741
 2050POPC    OE 8562   5.783   6.051   5.857
 2050POPC   C1A 8563   5.801   5.925   5.895
 2050POPC    OF 8564   5.905   5.868   5.863
 2050POPC   C1B 8565   5.696   5.879   5.989
 2050POPC   C1C 8566   5.728   5.755   6.073
 2050POPC   C1D 8567   5.843   5.775   6.171
 2050POPC   C1E 8568   5.837   5.676   6.287
 2050POPC   C1F 8569   5.971   5.681   6.359
 2050POPC   C1G 8570   5.975   5.627   6.502
 2050POPC   C1H 8571   6.120   5.605   6.547
 2050POPC   C1I 8572   6.147   5.473   6.619
 2050POPC   C1J 8573   6.143   5.460   6.751
 2050POPC   C1K 8574   6.111   5.582   6.838
 2050POPC   C1L 8575   6.075   5.547   6.982
 2050POPC   C1M 8576   6.189   5.473   7.052
 2050POPC   C1N 8577   6.182   5.478   7.205
 2050POPC   C1O 8578   6.045   5.441   7.262
 2050POPC   C1P 8579   6.050   5.416   7.413
 2050POPC   C1Q 8580   6.110   5.531   7.494
 2050POPC   C1R 8581   6.123   5.489   7.641
 2050POPC    CE 8582   5.998   6.152   5.765
 2050POPC    OG 8583   6.008   6.253   5.866
 2050POPC   C2A 8584   6.040   6.205   5.985
 2050POPC    OH 8585   6.129   6.120   5.992
 2050POPC   C2B 8586   5.999   6.293   6.096
 2050POPC   C2C 8587   5.942   6.210   6.212
 2050POPC   C2D 8588   5.900   6.302   6.327
 2050POPC   C2E 8589   5.846   6.219   6.443
 2050POPC   C2F 8590   5.803   6.310   6.558
 2050POPC   C2G 8591   5.749   6.227   6.674
 2050POPC   C2H 8592   5.696   6.316   6.785
 2050POPC   C2I 8593   5.640   6.232   6.900
 2050POPC   C2J 8594   5.578   6.320   7.008
 2050POPC   C2K 8595   5.524   6.232   7.120
 2050POPC   C2L 8596   5.462   6.315   7.233
 2050POPC   C2M 8597   5.418   6.221   7.345
 2050POPC   C2N 8598   5.362   6.297   7.465
 2050POPC   C2O 8599   5.331   6.198   7.577
 2050POPC   C2P 8600   5.272   6.267   7.699
 2051POPC   CN1 8601   0.903   3.848   5.364
 2051POPC   CN2 8602   0.784   4.028   5.458
 2051POPC   CN3 8603   0.808   4.019   5.221
 2051POPC   NTM 8604   0.876   3.992   5.348
 2051POPC    CA 8605   1.005   4.064   5.362
 2051POPC    CB 8606   1.016   4.214   5.323
 2051POPC    OA 8607   0.910   4.291   5.380
 2051POPC     P 8608   0.938   4.447   5.388
 2051POPC    OB 8609   0.845   4.492   5.282
 2051POPC    OC 8610   1.083   4.461   5.375
 2051POPC    OD 8611   0.883   4.475   5.532
 2051POPC    CC 8612   0.952   4.413   5.642
 2051POPC    CD 8613   0.872   4.296   5.704
 2051POPC    OE 8614   0.757   4.340   5.780
 2051POPC   C1A 8615   0.644   4.270   5.772
 2051POPC    OF 8616   0.632   4.185   5.683
 2051POPC   C1B 8617   0.534   4.334   5.849
 2051POPC   C1C 8618   0.438   4.236   5.917
 2051POPC   C1D 8619   0.483   4.195   6.057
 2051POPC   C1E 8620   0.372   4.115   6.125
 2051POPC   C1F 8621   0.396   4.101   6.276
 2051POPC   C1G 8622   0.276   4.033   6.343
 2051POPC   C1H 8623   0.290   4.031   6.495
 2051POPC   C1I 8624   0.175   3.951   6.558
 2051POPC   C1J 8625   0.162   3.928   6.688
 2051POPC   C1K 8626   0.257   3.982   6.795
 2051POPC   C1L 8627   0.203   3.972   6.939
 2051POPC   C1M 8628   0.178   3.829   6.988
 2051POPC   C1N 8629   0.184   3.815   7.141
 2051POPC   C1O 8630   0.082   3.902   7.215
 2051POPC   C1P 8631   0.072   3.873   7.365
 2051POPC   C1Q 8632   0.197   3.914   7.443
 2051POPC   C1R 8633   0.172   3.907   7.594
 2051POPC    CE 8634   0.967   4.198   5.774
 2051POPC    OG 8635   1.036   4.241   5.892
 2051POPC   C2A 8636   0.987   4.194   6.007
 2051POPC    OH 8637   0.903   4.103   6.008
 2051POPC   C2B 8638   1.058   4.248   6.125
 2051POPC   C2C 8639   0.962   4.280   6.240
 2051POPC   C2D 8640   1.038   4.345   6.355
 2051POPC   C2E 8641   0.942   4.380   6.469
 2051POPC   C2F 8642   1.015   4.451   6.583
 2051POPC   C2G 8643   0.914   4.487   6.692
 2051POPC   C2H 8644   0.978   4.564   6.808
 2051POPC   C2I 8645   0.867   4.607   6.904
 2051POPC   C2J 8646   0.917   4.687   7.023
 2051POPC   C2K 8647   0.794   4.738   7.099
 2051POPC   C2L 8648   0.827   4.814   7.227
 2051POPC   C2M 8649   0.695   4.865   7.286
 2051POPC   C2N 8650   0.712   4.923   7.426
 2051POPC   C2O 8651   0.576   4.972   7.478
 2051POPC   C2P 8652   0.585   5.019   7.623
 2052POPC   CN1 8653   1.034   2.263   5.223
 2052POPC   CN2 8654   1.159   2.150   5.387
 2052POPC   CN3 8655   1.241   2.164   5.164
 2052POPC   NTM 8656   1.120   2.147   5.244
 2052POPC    CA 8657   1.042   2.028   5.203
 2052POPC    CB 8658   1.094   1.884   5.218
 2052POPC    OA 8659   1.118   1.851   5.353
 2052POPC     P 8660   1.230   1.740   5.360
 2052POPC    OB 8661   1.339   1.815   5.296
 2052POPC    OC 8662   1.171   1.627   5.287
 2052POPC    OD 8663   1.255   1.715   5.513
 2052POPC    CC 8664   1.166   1.769   5.611
 2052POPC    CD 8665   1.200   1.909   5.667
 2052POPC    OE 8666   1.317   1.914   5.753
 2052POPC   C1A 8667   1.417   1.999   5.730
 2052POPC    OF 8668   1.434   2.038   5.613
 2052POPC   C1B 8669   1.518   1.994   5.840
 2052POPC   C1C 8670   1.592   2.122   5.883
 2052POPC   C1D 8671   1.582   2.139   6.036
 2052POPC   C1E 8672   1.650   2.263   6.096
 2052POPC   C1F 8673   1.596   2.285   6.238
 2052POPC   C1G 8674   1.682   2.368   6.335
 2052POPC   C1H 8675   1.617   2.373   6.474
 2052POPC   C1I 8676   1.712   2.420   6.585
 2052POPC   C1J 8677   1.690   2.414   6.717
 2052POPC   C1K 8678   1.563   2.368   6.790
 2052POPC   C1L 8679   1.557   2.434   6.928
 2052POPC   C1M 8680   1.424   2.418   7.003
 2052POPC   C1N 8681   1.419   2.493   7.137
 2052POPC   C1O 8682   1.530   2.447   7.233
 2052POPC   C1P 8683   1.533   2.516   7.369
 2052POPC   C1Q 8684   1.416   2.478   7.460
 2052POPC   C1R 8685   1.435   2.536   7.600
 2052POPC    CE 8686   1.072   1.958   5.735
 2052POPC    OG 8687   1.017   1.862   5.826
 2052POPC   C2A 8688   0.996   1.908   5.949
 2052POPC    OH 8689   0.979   2.029   5.967
 2052POPC   C2B 8690   0.976   1.801   6.049
 2052POPC   C2C 8691   1.033   1.848   6.182
 2052POPC   C2D 8692   0.994   1.763   6.302
 2052POPC   C2E 8693   1.040   1.832   6.430
 2052POPC   C2F 8694   1.040   1.735   6.547
 2052POPC   C2G 8695   1.087   1.793   6.680
 2052POPC   C2H 8696   1.091   1.679   6.781
 2052POPC   C2I 8697   1.139   1.719   6.920
 2052POPC   C2J 8698   1.122   1.604   7.019
 2052POPC   C2K 8699   1.211   1.628   7.141
 2052POPC   C2L 8700   1.191   1.522   7.249
 2052POPC   C2M 8701   1.305   1.534   7.350
 2052POPC   C2N 8702   1.288   1.440   7.469
 2052POPC   C2O 8703   1.411   1.448   7.559
 2052POPC   C2P 8704   1.395   1.362   7.684
 2053POPC   CN1 8705   0.117   3.733   5.272
 2053POPC   CN2 8706  -0.071   3.783   5.411
 2053POPC   CN3 8707  -0.101   3.773   5.174
 2053POPC   NTM 8708  -0.007   3.810   5.281
 2053POPC    CA 8709   0.038   3.950   5.265
 2053POPC    CB 8710  -0.061   4.067   5.280
 2053POPC    OA 8711  -0.113   4.076   5.411
 2053POPC     P 8712  -0.253   4.147   5.403
 2053POPC    OB 8713  -0.329   4.039   5.338
 2053POPC    OC 8714  -0.225   4.266   5.321
 2053POPC    OD 8715  -0.303   4.174   5.549
 2053POPC    CC 8716  -0.218   4.139   5.658
 2053POPC    CD 8717  -0.229   3.994   5.710
 2053POPC    OE 8718  -0.347   3.971   5.790
 2053POPC   C1A 8719  -0.373   3.849   5.838
 2053POPC    OF 8720  -0.302   3.756   5.803
 2053POPC   C1B 8721  -0.506   3.841   5.905
 2053POPC   C1C 8722  -0.540   3.708   5.973
 2053POPC   C1D 8723  -0.470   3.691   6.108
 2053POPC   C1E 8724  -0.525   3.568   6.181
 2053POPC   C1F 8725  -0.459   3.554   6.318
 2053POPC   C1G 8726  -0.509   3.430   6.392
 2053POPC   C1H 8727  -0.440   3.418   6.528
 2053POPC   C1I 8728  -0.496   3.301   6.609
 2053POPC   C1J 8729  -0.514   3.316   6.740
 2053POPC   C1K 8730  -0.478   3.448   6.807
 2053POPC   C1L 8731  -0.490   3.443   6.960
 2053POPC   C1M 8732  -0.384   3.352   7.023
 2053POPC   C1N 8733  -0.396   3.337   7.175
 2053POPC   C1O 8734  -0.527   3.269   7.218
 2053POPC   C1P 8735  -0.530   3.235   7.367
 2053POPC   C1Q 8736  -0.503   3.355   7.459
 2053POPC   C1R 8737  -0.508   3.313   7.606
 2053POPC    CE 8738  -0.090   3.964   5.771
 2053POPC    OG 8739  -0.050   4.046   5.880
 2053POPC   C2A 8740  -0.070   3.991   6.000
 2053POPC    OH 8741  -0.081   3.869   6.011
 2053POPC   C2B 8742  -0.057   4.084   6.113
 2053POPC   C2C 8743  -0.164   4.051   6.216
 2053POPC   C2D 8744  -0.150   4.140   6.339
 2053POPC   C2E 8745  -0.259   4.105   6.439
 2053POPC   C2F 8746  -0.240   4.191   6.563
 2053POPC   C2G 8747  -0.344   4.160   6.669
 2053POPC   C2H 8748  -0.318   4.248   6.792
 2053POPC   C2I 8749  -0.427   4.226   6.896
 2053POPC   C2J 8750  -0.408   4.319   7.015
 2053POPC   C2K 8751  -0.521   4.293   7.114
 2053POPC   C2L 8752  -0.516   4.386   7.235
 2053POPC   C2M 8753  -0.631   4.351   7.328
 2053POPC   C2N 8754  -0.635   4.442   7.451
 2053POPC   C2O 8755  -0.751   4.402   7.541
 2053POPC   C2P 8756  -0.758   4.493   7.664
 2054POPC   CN1 8757   3.125   4.785   5.178
 2054POPC   CN2 8758   3.014   4.755   5.385
 2054POPC   CN3 8759   2.974   4.609   5.202
 2054POPC   NTM 8760   2.999   4.749   5.238
 2054POPC    CA 8761   2.906   4.850   5.184
 2054POPC    CB 8762   2.754   4.829   5.185
 2054POPC    OA 8763   2.695   4.825   5.314
 2054POPC     P 8764   2.594   4.705   5.316
 2054POPC    OB 8765   2.665   4.580   5.288
 2054POPC    OC 8766   2.498   4.750   5.215
 2054POPC    OD 8767   2.522   4.712   5.456
 2054POPC    CC 8768   2.577   4.774   5.574
 2054POPC    CD 8769   2.719   4.746   5.624
 2054POPC    OE 8770   2.727   4.636   5.715
 2054POPC   C1A 8771   2.847   4.584   5.739
 2054POPC    OF 8772   2.936   4.604   5.655
 2054POPC   C1B 8773   2.844   4.482   5.845
 2054POPC   C1C 8774   2.973   4.476   5.927
 2054POPC   C1D 8775   2.971   4.562   6.053
 2054POPC   C1E 8776   3.085   4.513   6.142
 2054POPC   C1F 8777   3.075   4.563   6.286
 2054POPC   C1G 8778   3.162   4.474   6.374
 2054POPC   C1H 8779   3.151   4.510   6.522
 2054POPC   C1I 8780   3.215   4.401   6.607
 2054POPC   C1J 8781   3.193   4.395   6.738
 2054POPC   C1K 8782   3.108   4.500   6.809
 2054POPC   C1L 8783   3.161   4.515   6.952
 2054POPC   C1M 8784   3.105   4.635   7.028
 2054POPC   C1N 8785   3.185   4.663   7.156
 2054POPC   C1O 8786   3.184   4.543   7.253
 2054POPC   C1P 8787   3.267   4.567   7.379
 2054POPC   C1Q 8788   3.202   4.669   7.473
 2054POPC   C1R 8789   3.282   4.682   7.603
 2054POPC    CE 8790   2.771   4.880   5.680
 2054POPC    OG 8791   2.689   4.938   5.782
 2054POPC   C2A 8792   2.735   4.918   5.906
 2054POPC    OH 8793   2.856   4.904   5.923
 2054POPC   C2B 8794   2.633   4.938   6.012
 2054POPC   C2C 8795   2.679   4.881   6.146
 2054POPC   C2D 8796   2.567   4.892   6.249
 2054POPC   C2E 8797   2.616   4.850   6.388
 2054POPC   C2F 8798   2.504   4.868   6.490
 2054POPC   C2G 8799   2.555   4.835   6.631
 2054POPC   C2H 8800   2.452   4.872   6.737
 2054POPC   C2I 8801   2.495   4.815   6.872
 2054POPC   C2J 8802   2.402   4.857   6.985
 2054POPC   C2K 8803   2.420   4.758   7.100
 2054POPC   C2L 8804   2.339   4.797   7.224
 2054POPC   C2M 8805   2.338   4.681   7.324
 2054POPC   C2N 8806   2.267   4.722   7.453
 2054POPC   C2O 8807   2.255   4.602   7.546
 2054POPC   C2P 8808   2.187   4.643   7.677
 2055POPC   CN1 8809   1.299   5.711   5.243
 2055POPC   CN2 8810   1.345   5.863   5.414
 2055POPC   CN3 8811   1.248   5.942   5.211
 2055POPC   NTM 8812   1.344   5.847   5.268
 2055POPC    CA 8813   1.477   5.861   5.203
 2055POPC    CB 8814   1.557   5.992   5.216
 2055POPC    OA 8815   1.613   6.010   5.345
 2055POPC     P 8816   1.608   6.160   5.397
 2055POPC    OB 8817   1.461   6.174   5.396
 2055POPC    OC 8818   1.690   6.209   5.285
 2055POPC    OD 8819   1.690   6.121   5.526
 2055POPC    CC 8820   1.668   6.005   5.610
 2055POPC    CD 8821   1.542   5.976   5.694
 2055POPC    OE 8822   1.521   6.073   5.797
 2055POPC   C1A 8823   1.397   6.079   5.842
 2055POPC    OF 8824   1.303   6.045   5.769
 2055POPC   C1B 8825   1.394   6.139   5.976
 2055POPC   C1C 8826   1.282   6.087   6.064
 2055POPC   C1D 8827   1.325   5.963   6.142
 2055POPC   C1E 8828   1.219   5.945   6.249
 2055POPC   C1F 8829   1.257   5.846   6.358
 2055POPC   C1G 8830   1.143   5.850   6.459
 2055POPC   C1H 8831   1.167   5.764   6.582
 2055POPC   C1I 8832   1.040   5.763   6.667
 2055POPC   C1J 8833   1.046   5.787   6.797
 2055POPC   C1K 8834   1.181   5.816   6.862
 2055POPC   C1L 8835   1.183   5.786   7.013
 2055POPC   C1M 8836   1.183   5.637   7.044
 2055POPC   C1N 8837   1.215   5.603   7.190
 2055POPC   C1O 8838   1.118   5.668   7.289
 2055POPC   C1P 8839   1.110   5.593   7.423
 2055POPC   C1Q 8840   1.245   5.569   7.491
 2055POPC   C1R 8841   1.225   5.497   7.625
 2055POPC    CE 8842   1.543   5.831   5.750
 2055POPC    OG 8843   1.650   5.784   5.834
 2055POPC   C2A 8844   1.616   5.709   5.940
 2055POPC    OH 8845   1.497   5.684   5.960
 2055POPC   C2B 8846   1.729   5.663   6.025
 2055POPC   C2C 8847   1.698   5.658   6.176
 2055POPC   C2D 8848   1.826   5.675   6.260
 2055POPC   C2E 8849   1.809   5.672   6.412
 2055POPC   C2F 8850   1.923   5.749   6.481
 2055POPC   C2G 8851   1.915   5.745   6.634
 2055POPC   C2H 8852   2.026   5.825   6.703
 2055POPC   C2I 8853   2.008   5.815   6.855
 2055POPC   C2J 8854   2.118   5.882   6.939
 2055POPC   C2K 8855   2.092   5.848   7.086
 2055POPC   C2L 8856   2.206   5.883   7.183
 2055POPC   C2M 8857   2.169   5.995   7.281
 2055POPC   C2N 8858   2.240   5.980   7.415
 2055POPC   C2O 8859   2.222   6.103   7.503
 2055POPC   C2P 8860   2.276   6.080   7.644
 2056POPC   CN1 8861   4.841   4.934   5.420
 2056POPC   CN2 8862   4.701   5.120   5.445
 2056POPC   CN3 8863   4.761   5.048   5.219
 2056POPC   NTM 8864   4.805   5.063   5.358
 2056POPC    CA 8865   4.922   5.154   5.363
 2056POPC    CB 8866   4.927   5.281   5.274
 2056POPC    OA 8867   4.800   5.348   5.274
 2056POPC     P 8868   4.800   5.486   5.354
 2056POPC    OB 8869   4.662   5.527   5.318
 2056POPC    OC 8870   4.916   5.547   5.291
 2056POPC    OD 8871   4.814   5.427   5.500
 2056POPC    CC 8872   4.931   5.439   5.584
 2056POPC    CD 8873   4.922   5.333   5.697
 2056POPC    OE 8874   4.824   5.370   5.795
 2056POPC   C1A 8875   4.712   5.299   5.802
 2056POPC    OF 8876   4.674   5.225   5.711
 2056POPC   C1B 8877   4.642   5.331   5.926
 2056POPC   C1C 8878   4.649   5.217   6.026
 2056POPC   C1D 8879   4.624   5.275   6.164
 2056POPC   C1E 8880   4.564   5.170   6.254
 2056POPC   C1F 8881   4.564   5.219   6.398
 2056POPC   C1G 8882   4.506   5.109   6.485
 2056POPC   C1H 8883   4.522   5.142   6.633
 2056POPC   C1I 8884   4.455   5.032   6.713
 2056POPC   C1J 8885   4.454   5.042   6.845
 2056POPC   C1K 8886   4.518   5.164   6.911
 2056POPC   C1L 8887   4.480   5.180   7.058
 2056POPC   C1M 8888   4.531   5.063   7.140
 2056POPC   C1N 8889   4.548   5.092   7.289
 2056POPC   C1O 8890   4.417   5.093   7.367
 2056POPC   C1P 8891   4.439   5.073   7.517
 2056POPC   C1Q 8892   4.526   5.180   7.582
 2056POPC   C1R 8893   4.535   5.159   7.733
 2056POPC    CE 8894   5.060   5.298   5.758
 2056POPC    OG 8895   5.101   5.367   5.877
 2056POPC   C2A 8896   5.061   5.319   5.995
 2056POPC    OH 8897   5.000   5.213   6.007
 2056POPC   C2B 8898   5.110   5.406   6.105
 2056POPC   C2C 8899   5.064   5.381   6.249
 2056POPC   C2D 8900   5.110   5.505   6.326
 2056POPC   C2E 8901   5.093   5.511   6.478
 2056POPC   C2F 8902   5.121   5.656   6.520
 2056POPC   C2G 8903   5.106   5.684   6.670
 2056POPC   C2H 8904   5.144   5.828   6.707
 2056POPC   C2I 8905   5.088   5.862   6.845
 2056POPC   C2J 8906   5.144   5.986   6.916
 2056POPC   C2K 8907   5.047   6.018   7.030
 2056POPC   C2L 8908   5.094   6.108   7.144
 2056POPC   C2M 8909   4.973   6.129   7.237
 2056POPC   C2N 8910   5.009   6.164   7.381
 2056POPC   C2O 8911   4.882   6.179   7.465
 2056POPC   C2P 8912   4.910   6.190   7.615
 2057POPC   CN1 8913   5.683   1.829   5.260
 2057POPC   CN2 8914   5.795   1.675   5.395
 2057POPC   CN3 8915   5.874   1.712   5.177
 2057POPC   NTM 8916   5.752   1.701   5.257
 2057POPC    CA 8917   5.655   1.600   5.204
 2057POPC    CB 8918   5.671   1.447   5.215
 2057POPC    OA 8919   5.685   1.406   5.349
 2057POPC     P 8920   5.659   1.256   5.382
 2057POPC    OB 8921   5.784   1.180   5.387
 2057POPC    OC 8922   5.566   1.204   5.279
 2057POPC    OD 8923   5.587   1.291   5.517
 2057POPC    CC 8924   5.671   1.331   5.628
 2057POPC    CD 8925   5.715   1.471   5.679
 2057POPC    OE 8926   5.805   1.450   5.789
 2057POPC   C1A 8927   5.899   1.540   5.811
 2057POPC    OF 8928   5.917   1.633   5.731
 2057POPC   C1B 8929   5.984   1.496   5.922
 2057POPC   C1C 8930   6.050   1.609   5.998
 2057POPC   C1D 8931   5.953   1.680   6.091
 2057POPC   C1E 8932   6.034   1.713   6.215
 2057POPC   C1F 8933   5.956   1.800   6.312
 2057POPC   C1G 8934   6.046   1.814   6.434
 2057POPC   C1H 8935   6.023   1.946   6.507
 2057POPC   C1I 8936   6.152   1.981   6.582
 2057POPC   C1J 8937   6.165   1.954   6.711
 2057POPC   C1K 8938   6.045   1.898   6.789
 2057POPC   C1L 8939   6.061   1.905   6.941
 2057POPC   C1M 8940   6.104   2.043   6.993
 2057POPC   C1N 8941   6.067   2.067   7.139
 2057POPC   C1O 8942   6.103   1.952   7.233
 2057POPC   C1P 8943   6.078   1.995   7.377
 2057POPC   C1Q 8944   6.092   1.877   7.473
 2057POPC   C1R 8945   6.069   1.918   7.618
 2057POPC    CE 8946   5.606   1.575   5.718
 2057POPC    OG 8947   5.514   1.550   5.825
 2057POPC   C2A 8948   5.520   1.619   5.939
 2057POPC    OH 8949   5.599   1.712   5.952
 2057POPC   C2B 8950   5.415   1.579   6.037
 2057POPC   C2C 8951   5.438   1.612   6.186
 2057POPC   C2D 8952   5.340   1.533   6.275
 2057POPC   C2E 8953   5.360   1.552   6.427
 2057POPC   C2F 8954   5.321   1.427   6.509
 2057POPC   C2G 8955   5.359   1.441   6.657
 2057POPC   C2H 8956   5.361   1.310   6.737
 2057POPC   C2I 8957   5.432   1.330   6.872
 2057POPC   C2J 8958   5.428   1.206   6.962
 2057POPC   C2K 8959   5.503   1.228   7.095
 2057POPC   C2L 8960   5.478   1.112   7.192
 2057POPC   C2M 8961   5.553   1.129   7.325
 2057POPC   C2N 8962   5.510   1.023   7.426
 2057POPC   C2O 8963   5.584   1.039   7.559
 2057POPC   C2P 8964   5.530   0.942   7.665
 2058POPC   CN1 8965   4.542   0.962   5.289
 2058POPC   CN2 8966   4.747   0.957   5.400
 2058POPC   CN3 8967   4.735   1.037   5.173
 2058POPC   NTM 8968   4.685   0.937   5.267
 2058POPC    CA 8969   4.697   0.799   5.213
 2058POPC    CB 8970   4.828   0.716   5.212
 2058POPC    OA 8971   4.880   0.702   5.342
 2058POPC     P 8972   5.003   0.604   5.352
 2058POPC    OB 8973   5.100   0.691   5.282
 2058POPC    OC 8974   4.957   0.480   5.288
 2058POPC    OD 8975   5.020   0.601   5.508
 2058POPC    CC 8976   4.907   0.571   5.592
 2058POPC    CD 8977   4.848   0.696   5.661
 2058POPC    OE 8978   4.935   0.754   5.761
 2058POPC   C1A 8979   4.914   0.882   5.790
 2058POPC    OF 8980   4.863   0.954   5.703
 2058POPC   C1B 8981   4.982   0.921   5.916
 2058POPC   C1C 8982   4.900   1.019   5.999
 2058POPC   C1D 8983   4.791   0.961   6.091
 2058POPC   C1E 8984   4.725   1.079   6.162
 2058POPC   C1F 8985   4.701   1.054   6.311
 2058POPC   C1G 8986   4.701   1.187   6.387
 2058POPC   C1H 8987   4.686   1.166   6.538
 2058POPC   C1I 8988   4.707   1.295   6.617
 2058POPC   C1J 8989   4.721   1.287   6.749
 2058POPC   C1K 8990   4.715   1.148   6.812
 2058POPC   C1L 8991   4.688   1.144   6.962
 2058POPC   C1M 8992   4.538   1.138   6.994
 2058POPC   C1N 8993   4.507   1.107   7.141
 2058POPC   C1O 8994   4.563   1.211   7.238
 2058POPC   C1P 8995   4.489   1.212   7.372
 2058POPC   C1Q 8996   4.507   1.084   7.454
 2058POPC   C1R 8997   4.429   1.093   7.585
 2058POPC    CE 8998   4.706   0.671   5.714
 2058POPC    OG 8999   4.690   0.587   5.829
 2058POPC   C2A 9000   4.620   0.641   5.930
 2058POPC    OH 9001   4.564   0.750   5.918
 2058POPC   C2B 9002   4.604   0.548   6.044
 2058POPC   C2C 9003   4.599   0.610   6.184
 2058POPC   C2D 9004   4.559   0.499   6.282
 2058POPC   C2E 9005   4.573   0.535   6.430
 2058POPC   C2F 9006   4.541   0.412   6.516
 2058POPC   C2G 9007   4.579   0.437   6.662
 2058POPC   C2H 9008   4.573   0.310   6.749
 2058POPC   C2I 9009   4.638   0.343   6.883
 2058POPC   C2J 9010   4.656   0.225   6.979
 2058POPC   C2K 9011   4.757   0.271   7.085
 2058POPC   C2L 9012   4.783   0.173   7.199
 2058POPC   C2M 9013   4.909   0.219   7.273
 2058POPC   C2N 9014   4.901   0.201   7.424
 2058POPC   C2O 9015   5.035   0.234   7.490
 2058POPC   C2P 9016   5.027   0.220   7.642
 2059POPC   CN1 9017   0.978   0.046   5.339
 2059POPC   CN2 9018   1.069   0.235   5.446
 2059POPC   CN3 9019   1.037   0.241   5.210
 2059POPC   NTM 9020   1.075   0.155   5.322
 2059POPC    CA 9021   1.210   0.098   5.302
 2059POPC    CB 9022   1.332   0.190   5.276
 2059POPC    OA 9023   1.356   0.277   5.385
 2059POPC     P 9024   1.504   0.331   5.385
 2059POPC    OB 9025   1.506   0.439   5.284
 2059POPC    OC 9026   1.581   0.208   5.361
 2059POPC    OD 9027   1.513   0.376   5.534
 2059POPC    CC 9028   1.494   0.271   5.630
 2059POPC    CD 9029   1.369   0.291   5.717
 2059POPC    OE 9030   1.395   0.380   5.829
 2059POPC   C1A 9031   1.295   0.422   5.906
 2059POPC    OF 9032   1.180   0.387   5.883
 2059POPC   C1B 9033   1.343   0.501   6.022
 2059POPC   C1C 9034   1.236   0.588   6.087
 2059POPC   C1D 9035   1.182   0.531   6.218
 2059POPC   C1E 9036   1.068   0.622   6.264
 2059POPC   C1F 9037   0.994   0.579   6.391
 2059POPC   C1G 9038   1.079   0.588   6.518
 2059POPC   C1H 9039   1.001   0.530   6.636
 2059POPC   C1I 9040   0.941   0.636   6.729
 2059POPC   C1J 9041   0.985   0.641   6.854
 2059POPC   C1K 9042   1.095   0.543   6.898
 2059POPC   C1L 9043   1.105   0.523   7.049
 2059POPC   C1M 9044   0.993   0.435   7.105
 2059POPC   C1N 9045   1.001   0.415   7.257
 2059POPC   C1O 9046   1.001   0.548   7.334
 2059POPC   C1P 9047   0.959   0.533   7.481
 2059POPC   C1Q 9048   1.050   0.442   7.564
 2059POPC   C1R 9049   0.996   0.431   7.706
 2059POPC    CE 9050   1.322   0.149   5.757
 2059POPC    OG 9051   1.395   0.093   5.866
 2059POPC   C2A 9052   1.342   0.120   5.985
 2059POPC    OH 9053   1.221   0.105   6.003
 2059POPC   C2B 9054   1.448   0.130   6.088
 2059POPC   C2C 9055   1.401   0.108   6.232
 2059POPC   C2D 9056   1.527   0.119   6.318
 2059POPC   C2E 9057   1.495   0.130   6.466
 2059POPC   C2F 9058   1.626   0.165   6.538
 2059POPC   C2G 9059   1.603   0.196   6.685
 2059POPC   C2H 9060   1.736   0.235   6.749
 2059POPC   C2I 9061   1.722   0.252   6.899
 2059POPC   C2J 9062   1.860   0.263   6.963
 2059POPC   C2K 9063   1.848   0.274   7.115
 2059POPC   C2L 9064   1.986   0.279   7.181
 2059POPC   C2M 9065   1.970   0.316   7.328
 2059POPC   C2N 9066   2.105   0.351   7.391
 2059POPC   C2O 9067   2.082   0.423   7.524
 2059POPC   C2P 9068   2.215   0.459   7.591
 2060POPC   CN1 9069   4.426   4.983   5.258
 2060POPC   CN2 9070   4.438   4.818   5.424
 2060POPC   CN3 9071   4.529   4.770   5.207
 2060POPC   NTM 9072   4.420   4.838   5.279
 2060POPC    CA 9073   4.287   4.795   5.231
 2060POPC    CB 9074   4.252   4.645   5.225
 2060POPC    OA 9075   4.229   4.587   5.352
 2060POPC     P 9076   4.311   4.454   5.376
 2060POPC    OB 9077   4.451   4.492   5.361
 2060POPC    OC 9078   4.252   4.380   5.264
 2060POPC    OD 9079   4.249   4.408   5.512
 2060POPC    CC 9080   4.205   4.503   5.611
 2060POPC    CD 9081   4.296   4.606   5.680
 2060POPC    OE 9082   4.403   4.548   5.755
 2060POPC   C1A 9083   4.513   4.620   5.772
 2060POPC    OF 9084   4.539   4.709   5.690
 2060POPC   C1B 9085   4.607   4.555   5.866
 2060POPC   C1C 9086   4.689   4.654   5.948
 2060POPC   C1D 9087   4.619   4.713   6.071
 2060POPC   C1E 9088   4.723   4.798   6.143
 2060POPC   C1F 9089   4.696   4.821   6.292
 2060POPC   C1G 9090   4.822   4.881   6.355
 2060POPC   C1H 9091   4.808   4.902   6.506
 2060POPC   C1I 9092   4.943   4.934   6.570
 2060POPC   C1J 9093   4.954   4.931   6.702
 2060POPC   C1K 9094   4.829   4.904   6.787
 2060POPC   C1L 9095   4.849   4.924   6.937
 2060POPC   C1M 9096   4.912   5.059   6.975
 2060POPC   C1N 9097   4.890   5.099   7.121
 2060POPC   C1O 9098   4.928   4.993   7.225
 2060POPC   C1P 9099   4.897   5.048   7.364
 2060POPC   C1Q 9100   4.906   4.943   7.474
 2060POPC   C1R 9101   4.881   5.007   7.611
 2060POPC    CE 9102   4.206   4.708   5.753
 2060POPC    OG 9103   4.104   4.658   5.842
 2060POPC   C2A 9104   4.136   4.648   5.971
 2060POPC    OH 9105   4.238   4.705   6.012
 2060POPC   C2B 9106   4.030   4.588   6.057
 2060POPC   C2C 9107   4.040   4.636   6.202
 2060POPC   C2D 9108   3.946   4.567   6.301
 2060POPC   C2E 9109   3.988   4.607   6.442
 2060POPC   C2F 9110   3.928   4.514   6.548
 2060POPC   C2G 9111   4.011   4.522   6.677
 2060POPC   C2H 9112   3.959   4.426   6.784
 2060POPC   C2I 9113   4.060   4.414   6.898
 2060POPC   C2J 9114   4.006   4.331   7.014
 2060POPC   C2K 9115   4.116   4.302   7.116
 2060POPC   C2L 9116   4.061   4.232   7.240
 2060POPC   C2M 9117   4.175   4.182   7.330
 2060POPC   C2N 9118   4.121   4.132   7.464
 2060POPC   C2O 9119   4.232   4.068   7.548
 2060POPC   C2P 9120   4.182   4.030   7.687
 2061POPC   CN1 9121   1.203   1.074   5.247
 2061POPC   CN2 9122   1.023   1.078   5.397
 2061POPC   CN3 9123   0.981   1.111   5.163
 2061POPC   NTM 9124   1.074   1.140   5.273
 2061POPC    CA 9125   1.099   1.286   5.292
 2061POPC    CB 9126   0.980   1.385   5.286
 2061POPC    OA 9127   0.871   1.335   5.362
 2061POPC     P 9128   0.740   1.420   5.367
 2061POPC    OB 9129   0.657   1.333   5.283
 2061POPC    OC 9130   0.769   1.556   5.318
 2061POPC    OD 9131   0.695   1.412   5.517
 2061POPC    CC 9132   0.794   1.404   5.622
 2061POPC    CD 9133   0.834   1.260   5.661
 2061POPC    OE 9134   0.727   1.187   5.725
 2061POPC   C1A 9135   0.720   1.055   5.723
 2061POPC    OF 9136   0.743   1.000   5.614
 2061POPC   C1B 9137   0.623   1.008   5.825
 2061POPC   C1C 9138   0.655   0.876   5.893
 2061POPC   C1D 9139   0.654   0.894   6.045
 2061POPC   C1E 9140   0.636   0.759   6.116
 2061POPC   C1F 9141   0.648   0.773   6.268
 2061POPC   C1G 9142   0.610   0.642   6.338
 2061POPC   C1H 9143   0.624   0.653   6.490
 2061POPC   C1I 9144   0.582   0.523   6.559
 2061POPC   C1J 9145   0.564   0.517   6.691
 2061POPC   C1K 9146   0.587   0.640   6.779
 2061POPC   C1L 9147   0.549   0.620   6.926
 2061POPC   C1M 9148   0.649   0.535   7.003
 2061POPC   C1N 9149   0.645   0.554   7.155
 2061POPC   C1O 9150   0.519   0.498   7.224
 2061POPC   C1P 9151   0.543   0.469   7.373
 2061POPC   C1Q 9152   0.584   0.591   7.455
 2061POPC   C1R 9153   0.598   0.556   7.604
 2061POPC    CE 9154   0.967   1.266   5.738
 2061POPC    OG 9155   0.976   1.352   5.853
 2061POPC   C2A 9156   0.936   1.298   5.968
 2061POPC    OH 9157   0.899   1.181   5.974
 2061POPC   C2B 9158   0.952   1.387   6.085
 2061POPC   C2C 9159   0.880   1.330   6.207
 2061POPC   C2D 9160   0.899   1.416   6.331
 2061POPC   C2E 9161   0.817   1.366   6.449
 2061POPC   C2F 9162   0.828   1.469   6.561
 2061POPC   C2G 9163   0.756   1.439   6.692
 2061POPC   C2H 9164   0.764   1.563   6.780
 2061POPC   C2I 9165   0.725   1.536   6.924
 2061POPC   C2J 9166   0.713   1.663   7.008
 2061POPC   C2K 9167   0.625   1.630   7.129
 2061POPC   C2L 9168   0.604   1.742   7.230
 2061POPC   C2M 9169   0.498   1.693   7.328
 2061POPC   C2N 9170   0.489   1.773   7.458
 2061POPC   C2O 9171   0.391   1.703   7.552
 2061POPC   C2P 9172   0.381   1.775   7.687
 2062POPC   CN1 9173   3.299   3.942   5.203
 2062POPC   CN2 9174   3.221   3.797   5.369
 2062POPC   CN3 9175   3.212   3.727   5.140
 2062POPC   NTM 9176   3.196   3.842   5.230
 2062POPC    CA 9177   3.061   3.902   5.214
 2062POPC    CB 9178   2.935   3.816   5.242
 2062POPC    OA 9179   2.935   3.770   5.375
 2062POPC     P 9180   2.832   3.658   5.413
 2062POPC    OB 9181   2.907   3.557   5.484
 2062POPC    OC 9182   2.770   3.622   5.284
 2062POPC    OD 9183   2.748   3.762   5.495
 2062POPC    CC 9184   2.761   3.758   5.640
 2062POPC    CD 9185   2.897   3.756   5.714
 2062POPC    OE 9186   2.883   3.686   5.840
 2062POPC   C1A 9187   2.990   3.638   5.903
 2062POPC    OF 9188   3.101   3.672   5.864
 2062POPC   C1B 9189   2.956   3.554   6.021
 2062POPC   C1C 9190   3.068   3.469   6.082
 2062POPC   C1D 9191   3.161   3.554   6.171
 2062POPC   C1E 9192   3.239   3.478   6.279
 2062POPC   C1F 9193   3.320   3.583   6.357
 2062POPC   C1G 9194   3.386   3.542   6.490
 2062POPC   C1H 9195   3.441   3.669   6.557
 2062POPC   C1I 9196   3.540   3.647   6.671
 2062POPC   C1J 9197   3.517   3.676   6.799
 2062POPC   C1K 9198   3.382   3.730   6.848
 2062POPC   C1L 9199   3.372   3.753   6.999
 2062POPC   C1M 9200   3.431   3.888   7.041
 2062POPC   C1N 9201   3.408   3.926   7.188
 2062POPC   C1O 9202   3.468   3.827   7.288
 2062POPC   C1P 9203   3.478   3.886   7.429
 2062POPC   C1Q 9204   3.343   3.926   7.489
 2062POPC   C1R 9205   3.361   3.989   7.628
 2062POPC    CE 9206   2.964   3.895   5.711
 2062POPC    OG 9207   2.890   3.999   5.776
 2062POPC   C2A 9208   2.954   4.059   5.876
 2062POPC    OH 9209   3.072   4.090   5.860
 2062POPC   C2B 9210   2.861   4.119   5.974
 2062POPC   C2C 9211   2.913   4.123   6.118
 2062POPC   C2D 9212   2.805   4.177   6.211
 2062POPC   C2E 9213   2.849   4.186   6.357
 2062POPC   C2F 9214   2.728   4.223   6.444
 2062POPC   C2G 9215   2.759   4.244   6.592
 2062POPC   C2H 9216   2.628   4.266   6.668
 2062POPC   C2I 9217   2.648   4.299   6.816
 2062POPC   C2J 9218   2.515   4.291   6.893
 2062POPC   C2K 9219   2.544   4.287   7.043
 2062POPC   C2L 9220   2.423   4.248   7.128
 2062POPC   C2M 9221   2.471   4.196   7.264
 2062POPC   C2N 9222   2.360   4.188   7.368
 2062POPC   C2O 9223   2.415   4.132   7.500
 2062POPC   C2P 9224   2.314   4.149   7.613
 2063POPC   CN1 9225   4.972   3.287   5.232
 2063POPC   CN2 9226   5.063   3.150   5.398
 2063POPC   CN3 9227   5.146   3.127   5.176
 2063POPC   NTM 9228   5.026   3.153   5.255
 2063POPC    CA 9229   4.917   3.057   5.225
 2063POPC    CB 9230   4.943   2.905   5.221
 2063POPC    OA 9231   5.002   2.866   5.343
 2063POPC     P 9232   5.064   2.723   5.343
 2063POPC    OB 9233   5.182   2.753   5.260
 2063POPC    OC 9234   4.956   2.639   5.289
 2063POPC    OD 9235   5.091   2.706   5.498
 2063POPC    CC 9236   4.991   2.749   5.592
 2063POPC    CD 9237   5.019   2.889   5.652
 2063POPC    OE 9238   5.133   2.891   5.741
 2063POPC   C1A 9239   5.205   3.002   5.751
 2063POPC    OF 9240   5.194   3.091   5.666
 2063POPC   C1B 9241   5.319   2.982   5.844
 2063POPC   C1C 9242   5.363   3.109   5.916
 2063POPC   C1D 9243   5.307   3.116   6.059
 2063POPC   C1E 9244   5.376   3.231   6.133
 2063POPC   C1F 9245   5.346   3.225   6.283
 2063POPC   C1G 9246   5.423   3.335   6.356
 2063POPC   C1H 9247   5.397   3.325   6.507
 2063POPC   C1I 9248   5.467   3.438   6.582
 2063POPC   C1J 9249   5.464   3.438   6.715
 2063POPC   C1K 9250   5.389   3.327   6.789
 2063POPC   C1L 9251   5.436   3.301   6.933
 2063POPC   C1M 9252   5.441   3.428   7.020
 2063POPC   C1N 9253   5.427   3.395   7.168
 2063POPC   C1O 9254   5.483   3.509   7.255
 2063POPC   C1P 9255   5.432   3.508   7.400
 2063POPC   C1Q 9256   5.435   3.372   7.469
 2063POPC   C1R 9257   5.395   3.384   7.616
 2063POPC    CE 9258   4.888   2.951   5.702
 2063POPC    OG 9259   4.822   2.889   5.814
 2063POPC   C2A 9260   4.858   2.933   5.934
 2063POPC    OH 9261   4.947   3.016   5.949
 2063POPC   C2B 9262   4.784   2.866   6.044
 2063POPC   C2C 9263   4.852   2.894   6.178
 2063POPC   C2D 9264   4.844   2.772   6.268
 2063POPC   C2E 9265   4.914   2.800   6.400
 2063POPC   C2F 9266   4.902   2.678   6.490
 2063POPC   C2G 9267   4.958   2.710   6.628
 2063POPC   C2H 9268   4.929   2.594   6.724
 2063POPC   C2I 9269   4.979   2.629   6.863
 2063POPC   C2J 9270   4.956   2.512   6.958
 2063POPC   C2K 9271   5.019   2.543   7.094
 2063POPC   C2L 9272   5.004   2.424   7.187
 2063POPC   C2M 9273   5.065   2.457   7.323
 2063POPC   C2N 9274   5.042   2.342   7.421
 2063POPC   C2O 9275   5.087   2.382   7.561
 2063POPC   C2P 9276   5.066   2.267   7.660
 2064POPC   CN1 9277   2.526   5.089   5.439
 2064POPC   CN2 9278   2.519   5.319   5.440
 2064POPC   CN3 9279   2.467   5.207   5.238
 2064POPC   NTM 9280   2.555   5.205   5.355
 2064POPC    CA 9281   2.696   5.192   5.310
 2064POPC    CB 9282   2.777   5.315   5.264
 2064POPC    OA 9283   2.827   5.387   5.375
 2064POPC     P 9284   2.807   5.542   5.375
 2064POPC    OB 9285   2.691   5.565   5.286
 2064POPC    OC 9286   2.937   5.598   5.335
 2064POPC    OD 9287   2.765   5.561   5.526
 2064POPC    CC 9288   2.825   5.482   5.631
 2064POPC    CD 9289   2.733   5.390   5.716
 2064POPC    OE 9290   2.645   5.471   5.793
 2064POPC   C1A 9291   2.528   5.416   5.818
 2064POPC    OF 9292   2.481   5.334   5.737
 2064POPC   C1B 9293   2.461   5.485   5.929
 2064POPC   C1C 9294   2.421   5.388   6.039
 2064POPC   C1D 9295   2.521   5.333   6.140
 2064POPC   C1E 9296   2.436   5.302   6.263
 2064POPC   C1F 9297   2.492   5.233   6.387
 2064POPC   C1G 9298   2.381   5.231   6.492
 2064POPC   C1H 9299   2.423   5.212   6.638
 2064POPC   C1I 9300   2.300   5.230   6.727
 2064POPC   C1J 9301   2.303   5.245   6.860
 2064POPC   C1K 9302   2.433   5.243   6.940
 2064POPC   C1L 9303   2.417   5.277   7.089
 2064POPC   C1M 9304   2.324   5.182   7.163
 2064POPC   C1N 9305   2.366   5.156   7.308
 2064POPC   C1O 9306   2.336   5.271   7.405
 2064POPC   C1P 9307   2.371   5.232   7.549
 2064POPC   C1Q 9308   2.522   5.214   7.570
 2064POPC   C1R 9309   2.552   5.166   7.712
 2064POPC    CE 9310   2.789   5.266   5.793
 2064POPC    OG 9311   2.910   5.250   5.872
 2064POPC   C2A 9312   2.899   5.200   5.997
 2064POPC    OH 9313   2.789   5.204   6.050
 2064POPC   C2B 9314   3.025   5.156   6.065
 2064POPC   C2C 9315   3.023   5.137   6.219
 2064POPC   C2D 9316   3.081   5.255   6.300
 2064POPC   C2E 9317   3.102   5.238   6.452
 2064POPC   C2F 9318   3.139   5.373   6.517
 2064POPC   C2G 9319   3.154   5.373   6.671
 2064POPC   C2H 9320   3.192   5.512   6.726
 2064POPC   C2I 9321   3.209   5.512   6.879
 2064POPC   C2J 9322   3.297   5.628   6.930
 2064POPC   C2K 9323   3.298   5.636   7.083
 2064POPC   C2L 9324   3.367   5.761   7.139
 2064POPC   C2M 9325   3.320   5.788   7.283
 2064POPC   C2N 9326   3.390   5.905   7.352
 2064POPC   C2O 9327   3.326   5.934   7.488
 2064POPC   C2P 9328   3.406   6.036   7.569
 2065POPC   CN1 9329   5.034   3.559  10.847
 2065POPC   CN2 9330   4.962   3.417  10.673
 2065POPC   CN3 9331   4.925   3.352  10.901
 2065POPC   NTM 9332   5.018   3.419  10.810
 2065POPC    CA 9333   5.151   3.356  10.814
 2065POPC    CB 9334   5.174   3.209  10.772
 2065POPC    OA 9335   5.155   3.184  10.635
 2065POPC     P 9336   5.198   3.036  10.602
 2065POPC    OB 9337   5.087   2.967  10.670
 2065POPC    OC 9338   5.332   3.029  10.661
 2065POPC    OD 9339   5.190   3.036  10.445
 2065POPC    CC 9340   5.247   3.145  10.371
 2065POPC    CD 9341   5.144   3.217  10.282
 2065POPC    OE 9342   5.090   3.133  10.177
 2065POPC   C1A 9343   4.983   3.174  10.109
 2065POPC    OF 9344   4.924   3.276  10.145
 2065POPC   C1B 9345   4.944   3.083   9.998
 2065POPC   C1C 9346   4.809   3.110   9.930
 2065POPC   C1D 9347   4.810   3.240   9.849
 2065POPC   C1E 9348   4.702   3.249   9.741
 2065POPC   C1F 9349   4.712   3.388   9.680
 2065POPC   C1G 9350   4.653   3.408   9.541
 2065POPC   C1H 9351   4.699   3.544   9.488
 2065POPC   C1I 9352   4.613   3.588   9.370
 2065POPC   C1J 9353   4.652   3.598   9.243
 2065POPC   C1K 9354   4.792   3.573   9.186
 2065POPC   C1L 9355   4.794   3.596   9.034
 2065POPC   C1M 9356   4.748   3.737   8.993
 2065POPC   C1N 9357   4.772   3.775   8.846
 2065POPC   C1O 9358   4.730   3.668   8.745
 2065POPC   C1P 9359   4.733   3.716   8.599
 2065POPC   C1Q 9360   4.859   3.793   8.558
 2065POPC   C1R 9361   4.861   3.822   8.408
 2065POPC    CE 9362   5.200   3.353  10.233
 2065POPC    OG 9363   5.297   3.360  10.126
 2065POPC   C2A 9364   5.303   3.475  10.059
 2065POPC    OH 9365   5.240   3.573  10.099
 2065POPC   C2B 9366   5.409   3.483   9.955
 2065POPC   C2C 9367   5.379   3.435   9.813
 2065POPC   C2D 9368   5.501   3.460   9.724
 2065POPC   C2E 9369   5.476   3.420   9.579
 2065POPC   C2F 9370   5.599   3.430   9.488
 2065POPC   C2G 9371   5.567   3.364   9.355
 2065POPC   C2H 9372   5.685   3.340   9.260
 2065POPC   C2I 9373   5.635   3.237   9.159
 2065POPC   C2J 9374   5.724   3.207   9.039
 2065POPC   C2K 9375   5.655   3.094   8.962
 2065POPC   C2L 9376   5.702   3.080   8.817
 2065POPC   C2M 9377   5.620   2.971   8.747
 2065POPC   C2N 9378   5.648   2.969   8.597
 2065POPC   C2O 9379   5.562   2.865   8.524
 2065POPC   C2P 9380   5.586   2.871   8.373
 2066POPC   CN1 9381   5.416   4.560  10.721
 2066POPC   CN2 9382   5.444   4.373  10.584
 2066POPC   CN3 9383   5.417   4.341  10.816
 2066POPC   NTM 9384   5.478   4.428  10.716
 2066POPC    CA 9385   5.625   4.443  10.733
 2066POPC    CB 9386   5.724   4.323  10.731
 2066POPC    OA 9387   5.732   4.253  10.608
 2066POPC     P 9388   5.728   4.098  10.631
 2066POPC    OB 9389   5.608   4.085  10.715
 2066POPC    OC 9390   5.856   4.065  10.698
 2066POPC    OD 9391   5.711   4.025  10.494
 2066POPC    CC 9392   5.733   4.087  10.366
 2066POPC    CD 9393   5.628   4.190  10.319
 2066POPC    OE 9394   5.522   4.143  10.232
 2066POPC   C1A 9395   5.407   4.211  10.229
 2066POPC    OF 9396   5.380   4.289  10.321
 2066POPC   C1B 9397   5.314   4.166  10.124
 2066POPC   C1C 9398   5.235   4.280  10.060
 2066POPC   C1D 9399   5.262   4.285   9.909
 2066POPC   C1E 9400   5.146   4.355   9.839
 2066POPC   C1F 9401   5.170   4.364   9.688
 2066POPC   C1G 9402   5.044   4.417   9.620
 2066POPC   C1H 9403   5.069   4.442   9.471
 2066POPC   C1I 9404   4.941   4.485   9.399
 2066POPC   C1J 9405   4.927   4.455   9.270
 2066POPC   C1K 9406   5.041   4.383   9.198
 2066POPC   C1L 9407   5.046   4.409   9.047
 2066POPC   C1M 9408   5.069   4.557   9.011
 2066POPC   C1N 9409   5.093   4.581   8.862
 2066POPC   C1O 9410   4.975   4.537   8.776
 2066POPC   C1P 9411   4.982   4.584   8.630
 2066POPC   C1Q 9412   5.094   4.517   8.549
 2066POPC   C1R 9413   5.088   4.565   8.404
 2066POPC    CE 9414   5.707   4.310  10.265
 2066POPC    OG 9415   5.784   4.294  10.145
 2066POPC   C2A 9416   5.723   4.334  10.033
 2066POPC    OH 9417   5.625   4.408  10.039
 2066POPC   C2B 9418   5.802   4.307   9.910
 2066POPC   C2C 9419   5.711   4.275   9.790
 2066POPC   C2D 9420   5.791   4.269   9.660
 2066POPC   C2E 9421   5.700   4.232   9.543
 2066POPC   C2F 9422   5.775   4.228   9.410
 2066POPC   C2G 9423   5.685   4.172   9.299
 2066POPC   C2H 9424   5.756   4.164   9.163
 2066POPC   C2I 9425   5.667   4.087   9.065
 2066POPC   C2J 9426   5.730   4.069   8.927
 2066POPC   C2K 9427   5.640   3.976   8.844
 2066POPC   C2L 9428   5.696   3.946   8.705
 2066POPC   C2M 9429   5.620   3.828   8.644
 2066POPC   C2N 9430   5.672   3.788   8.506
 2066POPC   C2O 9431   5.604   3.660   8.458
 2066POPC   C2P 9432   5.648   3.623   8.316
 2067POPC   CN1 9433   1.068   3.771  10.864
 2067POPC   CN2 9434   1.102   3.860  10.642
 2067POPC   CN3 9435   1.191   3.967  10.834
 2067POPC   NTM 9436   1.075   3.892  10.784
 2067POPC    CA 9437   0.942   3.955  10.803
 2067POPC    CB 9438   0.897   4.090  10.745
 2067POPC    OA 9439   0.944   4.115  10.614
 2067POPC     P 9440   1.011   4.257  10.612
 2067POPC    OB 9441   1.096   4.251  10.733
 2067POPC    OC 9442   0.899   4.350  10.627
 2067POPC    OD 9443   1.097   4.275  10.485
 2067POPC    CC 9444   1.049   4.238  10.355
 2067POPC    CD 9445   1.053   4.089  10.313
 2067POPC    OE 9446   1.139   4.054  10.201
 2067POPC   C1A 9447   1.234   3.961  10.219
 2067POPC    OF 9448   1.236   3.895  10.323
 2067POPC   C1B 9449   1.317   3.944  10.096
 2067POPC   C1C 9450   1.411   3.823  10.087
 2067POPC   C1D 9451   1.364   3.711   9.992
 2067POPC   C1E 9452   1.388   3.732   9.842
 2067POPC   C1F 9453   1.340   3.610   9.763
 2067POPC   C1G 9454   1.367   3.622   9.612
 2067POPC   C1H 9455   1.292   3.519   9.527
 2067POPC   C1I 9456   1.385   3.450   9.427
 2067POPC   C1J 9457   1.390   3.475   9.296
 2067POPC   C1K 9458   1.297   3.571   9.221
 2067POPC   C1L 9459   1.313   3.565   9.068
 2067POPC   C1M 9460   1.296   3.423   9.011
 2067POPC   C1N 9461   1.262   3.413   8.862
 2067POPC   C1O 9462   1.371   3.462   8.767
 2067POPC   C1P 9463   1.345   3.417   8.622
 2067POPC   C1Q 9464   1.209   3.459   8.565
 2067POPC   C1R 9465   1.199   3.427   8.416
 2067POPC    CE 9466   0.906   4.055  10.287
 2067POPC    OG 9467   0.839   4.135  10.187
 2067POPC   C2A 9468   0.816   4.073  10.072
 2067POPC    OH 9469   0.784   3.954  10.077
 2067POPC   C2B 9470   0.785   4.163   9.959
 2067POPC   C2C 9471   0.851   4.117   9.829
 2067POPC   C2D 9472   0.799   4.191   9.706
 2067POPC   C2E 9473   0.882   4.159   9.581
 2067POPC   C2F 9474   0.835   4.238   9.459
 2067POPC   C2G 9475   0.919   4.207   9.334
 2067POPC   C2H 9476   0.867   4.287   9.215
 2067POPC   C2I 9477   0.931   4.246   9.082
 2067POPC   C2J 9478   0.873   4.330   8.968
 2067POPC   C2K 9479   0.932   4.291   8.832
 2067POPC   C2L 9480   0.888   4.391   8.725
 2067POPC   C2M 9481   0.949   4.354   8.589
 2067POPC   C2N 9482   0.922   4.463   8.485
 2067POPC   C2O 9483   0.987   4.425   8.351
 2067POPC   C2P 9484   0.975   4.538   8.249
 2068POPC   CN1 9485   1.425   5.231  10.617
 2068POPC   CN2 9486   1.373   5.015  10.543
 2068POPC   CN3 9487   1.313   5.078  10.766
 2068POPC   NTM 9488   1.414   5.092  10.662
 2068POPC    CA 9489   1.545   5.056  10.722
 2068POPC    CB 9490   1.604   4.914  10.733
 2068POPC    OA 9491   1.615   4.857  10.605
 2068POPC     P 9492   1.708   4.732  10.598
 2068POPC    OB 9493   1.622   4.639  10.671
 2068POPC    OC 9494   1.837   4.760  10.660
 2068POPC    OD 9495   1.705   4.696  10.447
 2068POPC    CC 9496   1.727   4.800  10.350
 2068POPC    CD 9497   1.602   4.872  10.293
 2068POPC    OE 9498   1.514   4.789  10.215
 2068POPC   C1A 9499   1.392   4.835  10.186
 2068POPC    OF 9500   1.347   4.927  10.256
 2068POPC   C1B 9501   1.318   4.750  10.091
 2068POPC   C1C 9502   1.237   4.827   9.987
 2068POPC   C1D 9503   1.317   4.881   9.869
 2068POPC   C1E 9504   1.217   4.935   9.767
 2068POPC   C1F 9505   1.276   4.982   9.634
 2068POPC   C1G 9506   1.159   5.013   9.541
 2068POPC   C1H 9507   1.198   5.049   9.398
 2068POPC   C1I 9508   1.071   5.051   9.314
 2068POPC   C1J 9509   1.069   5.054   9.181
 2068POPC   C1K 9510   1.196   5.059   9.096
 2068POPC   C1L 9511   1.167   5.005   8.956
 2068POPC   C1M 9512   1.080   5.098   8.872
 2068POPC   C1N 9513   0.991   5.029   8.767
 2068POPC   C1O 9514   1.062   4.956   8.653
 2068POPC   C1P 9515   0.984   4.973   8.523
 2068POPC   C1Q 9516   1.027   4.885   8.405
 2068POPC   C1R 9517   1.150   4.936   8.329
 2068POPC    CE 9518   1.649   4.997  10.218
 2068POPC    OG 9519   1.764   4.971  10.137
 2068POPC   C2A 9520   1.740   4.974  10.007
 2068POPC    OH 9521   1.656   5.051   9.960
 2068POPC   C2B 9522   1.842   4.897   9.933
 2068POPC   C2C 9523   1.796   4.863   9.792
 2068POPC   C2D 9524   1.918   4.815   9.713
 2068POPC   C2E 9525   1.878   4.795   9.568
 2068POPC   C2F 9526   1.998   4.760   9.482
 2068POPC   C2G 9527   1.949   4.744   9.339
 2068POPC   C2H 9528   2.060   4.692   9.249
 2068POPC   C2I 9529   2.000   4.666   9.111
 2068POPC   C2J 9530   2.101   4.596   9.020
 2068POPC   C2K 9531   2.034   4.561   8.887
 2068POPC   C2L 9532   2.131   4.485   8.798
 2068POPC   C2M 9533   2.064   4.447   8.666
 2068POPC   C2N 9534   2.161   4.363   8.582
 2068POPC   C2O 9535   2.098   4.324   8.449
 2068POPC   C2P 9536   2.190   4.230   8.371
 2069POPC   CN1 9537   3.667   5.871  10.580
 2069POPC   CN2 9538   3.516   5.700  10.557
 2069POPC   CN3 9539   3.491   5.839  10.744
 2069POPC   NTM 9540   3.590   5.774  10.659
 2069POPC    CA 9541   3.678   5.692  10.746
 2069POPC    CB 9542   3.676   5.538  10.751
 2069POPC    OA 9543   3.722   5.477  10.631
 2069POPC     P 9544   3.645   5.343  10.606
 2069POPC    OB 9545   3.503   5.380  10.606
 2069POPC    OC 9546   3.701   5.273  10.723
 2069POPC    OD 9547   3.714   5.297  10.472
 2069POPC    CC 9548   3.758   5.385  10.366
 2069POPC    CD 9549   3.682   5.508  10.310
 2069POPC    OE 9550   3.580   5.482  10.212
 2069POPC   C1A 9551   3.494   5.579  10.177
 2069POPC    OF 9552   3.476   5.670  10.259
 2069POPC   C1B 9553   3.426   5.554  10.047
 2069POPC   C1C 9554   3.286   5.608  10.011
 2069POPC   C1D 9555   3.250   5.561   9.869
 2069POPC   C1E 9556   3.140   5.638   9.792
 2069POPC   C1F 9557   3.207   5.733   9.692
 2069POPC   C1G 9558   3.128   5.794   9.576
 2069POPC   C1H 9559   3.228   5.877   9.495
 2069POPC   C1I 9560   3.172   5.966   9.385
 2069POPC   C1J 9561   3.191   5.949   9.254
 2069POPC   C1K 9562   3.268   5.835   9.188
 2069POPC   C1L 9563   3.249   5.826   9.036
 2069POPC   C1M 9564   3.300   5.951   8.964
 2069POPC   C1N 9565   3.336   5.935   8.816
 2069POPC   C1O 9566   3.217   5.910   8.724
 2069POPC   C1P 9567   3.242   5.966   8.583
 2069POPC   C1Q 9568   3.367   5.912   8.513
 2069POPC   C1R 9569   3.387   5.981   8.378
 2069POPC    CE 9570   3.795   5.600  10.259
 2069POPC    OG 9571   3.876   5.548  10.152
 2069POPC   C2A 9572   3.836   5.582  10.029
 2069POPC    OH 9573   3.747   5.666  10.013
 2069POPC   C2B 9574   3.918   5.524   9.921
 2069POPC   C2C 9575   3.846   5.522   9.787
 2069POPC   C2D 9576   3.943   5.502   9.670
 2069POPC   C2E 9577   3.864   5.467   9.544
 2069POPC   C2F 9578   3.946   5.456   9.416
 2069POPC   C2G 9579   3.856   5.394   9.310
 2069POPC   C2H 9580   3.918   5.374   9.172
 2069POPC   C2I 9581   3.810   5.304   9.088
 2069POPC   C2J 9582   3.854   5.259   8.949
 2069POPC   C2K 9583   3.734   5.191   8.884
 2069POPC   C2L 9584   3.764   5.141   8.742
 2069POPC   C2M 9585   3.641   5.076   8.681
 2069POPC   C2N 9586   3.668   5.034   8.537
 2069POPC   C2O 9587   3.546   4.965   8.475
 2069POPC   C2P 9588   3.575   4.925   8.330
 2070POPC   CN1 9589   2.347   4.310  10.691
 2070POPC   CN2 9590   2.510   4.208  10.565
 2070POPC   CN3 9591   2.463   4.118  10.778
 2070POPC   NTM 9592   2.476   4.244  10.704
 2070POPC    CA 9593   2.568   4.340  10.770
 2070POPC    CB 9594   2.721   4.322  10.773
 2070POPC    OA 9595   2.775   4.316  10.643
 2070POPC     P 9596   2.932   4.315  10.643
 2070POPC    OB 9597   2.950   4.185  10.709
 2070POPC    OC 9598   2.973   4.433  10.720
 2070POPC    OD 9599   2.965   4.307  10.489
 2070POPC    CC 9600   2.892   4.387  10.395
 2070POPC    CD 9601   2.768   4.318  10.330
 2070POPC    OE 9602   2.796   4.208  10.240
 2070POPC   C1A 9603   2.703   4.114  10.225
 2070POPC    OF 9604   2.606   4.112  10.301
 2070POPC   C1B 9605   2.744   4.007  10.131
 2070POPC   C1C 9606   2.628   3.941  10.054
 2070POPC   C1D 9607   2.580   4.021   9.932
 2070POPC   C1E 9608   2.482   3.934   9.853
 2070POPC   C1F 9609   2.440   3.996   9.719
 2070POPC   C1G 9610   2.349   3.899   9.644
 2070POPC   C1H 9611   2.312   3.952   9.505
 2070POPC   C1I 9612   2.225   3.852   9.429
 2070POPC   C1J 9613   2.247   3.832   9.300
 2070POPC   C1K 9614   2.363   3.908   9.234
 2070POPC   C1L 9615   2.412   3.845   9.103
 2070POPC   C1M 9616   2.314   3.868   8.987
 2070POPC   C1N 9617   2.382   3.842   8.853
 2070POPC   C1O 9618   2.311   3.732   8.773
 2070POPC   C1P 9619   2.366   3.713   8.632
 2070POPC   C1Q 9620   2.362   3.840   8.547
 2070POPC   C1R 9621   2.391   3.812   8.399
 2070POPC    CE 9622   2.677   4.427  10.273
 2070POPC    OG 9623   2.734   4.509  10.170
 2070POPC   C2A 9624   2.678   4.493  10.050
 2070POPC    OH 9625   2.567   4.442  10.038
 2070POPC   C2B 9626   2.755   4.557   9.942
 2070POPC   C2C 9627   2.743   4.478   9.812
 2070POPC   C2D 9628   2.844   4.530   9.710
 2070POPC   C2E 9629   2.828   4.456   9.577
 2070POPC   C2F 9630   2.940   4.498   9.482
 2070POPC   C2G 9631   2.927   4.424   9.349
 2070POPC   C2H 9632   3.047   4.454   9.260
 2070POPC   C2I 9633   3.040   4.370   9.133
 2070POPC   C2J 9634   3.164   4.393   9.047
 2070POPC   C2K 9635   3.160   4.302   8.924
 2070POPC   C2L 9636   3.279   4.328   8.832
 2070POPC   C2M 9637   3.273   4.234   8.712
 2070POPC   C2N 9638   3.377   4.272   8.607
 2070POPC   C2O 9639   3.364   4.181   8.485
 2070POPC   C2P 9640   3.451   4.231   8.370
 2071POPC   CN1 9641   4.304   1.281  10.657
 2071POPC   CN2 9642   4.123   1.245  10.523
 2071POPC   CN3 9643   4.095   1.391  10.708
 2071POPC   NTM 9644   4.158   1.266  10.663
 2071POPC    CA 9645   4.122   1.148  10.745
 2071POPC    CB 9646   3.974   1.105  10.761
 2071POPC    OA 9647   3.919   1.058  10.639
 2071POPC     P 9648   3.776   1.119  10.607
 2071POPC    OB 9649   3.800   1.262  10.634
 2071POPC    OC 9650   3.700   1.040  10.704
 2071POPC    OD 9651   3.774   1.089  10.454
 2071POPC    CC 9652   3.839   0.978  10.391
 2071POPC    CD 9653   3.953   1.018  10.294
 2071POPC    OE 9654   3.908   1.104  10.187
 2071POPC   C1A 9655   3.962   1.223  10.169
 2071POPC    OF 9656   4.033   1.276  10.255
 2071POPC   C1B 9657   3.910   1.289  10.048
 2071POPC   C1C 9658   4.009   1.380   9.977
 2071POPC   C1D 9659   4.049   1.317   9.844
 2071POPC   C1E 9660   4.079   1.424   9.739
 2071POPC   C1F 9661   4.112   1.356   9.606
 2071POPC   C1G 9662   4.127   1.454   9.490
 2071POPC   C1H 9663   4.152   1.378   9.360
 2071POPC   C1I 9664   4.187   1.474   9.247
 2071POPC   C1J 9665   4.159   1.446   9.120
 2071POPC   C1K 9666   4.088   1.316   9.081
 2071POPC   C1L 9667   4.086   1.291   8.929
 2071POPC   C1M 9668   4.221   1.246   8.873
 2071POPC   C1N 9669   4.224   1.222   8.722
 2071POPC   C1O 9670   4.181   1.346   8.642
 2071POPC   C1P 9671   4.234   1.351   8.498
 2071POPC   C1Q 9672   4.189   1.235   8.410
 2071POPC   C1R 9673   4.265   1.233   8.277
 2071POPC    CE 9674   4.028   0.893  10.245
 2071POPC    OG 9675   3.959   0.799  10.161
 2071POPC   C2A 9676   3.953   0.828  10.031
 2071POPC    OH 9677   4.042   0.897   9.979
 2071POPC   C2B 9678   3.853   0.747   9.958
 2071POPC   C2C 9679   3.883   0.717   9.811
 2071POPC   C2D 9680   3.769   0.645   9.738
 2071POPC   C2E 9681   3.791   0.645   9.587
 2071POPC   C2F 9682   3.656   0.644   9.515
 2071POPC   C2G 9683   3.666   0.671   9.364
 2071POPC   C2H 9684   3.526   0.666   9.303
 2071POPC   C2I 9685   3.526   0.698   9.153
 2071POPC   C2J 9686   3.390   0.665   9.091
 2071POPC   C2K 9687   3.329   0.783   9.016
 2071POPC   C2L 9688   3.234   0.737   8.906
 2071POPC   C2M 9689   3.197   0.853   8.813
 2071POPC   C2N 9690   3.133   0.801   8.684
 2071POPC   C2O 9691   3.120   0.913   8.581
 2071POPC   C2P 9692   3.068   0.859   8.447
 2072POPC   CN1 9693   2.055   0.372  10.641
 2072POPC   CN2 9694   2.085   0.588  10.553
 2072POPC   CN3 9695   2.200   0.529  10.750
 2072POPC   NTM 9696   2.073   0.513  10.679
 2072POPC    CA 9697   1.962   0.555  10.768
 2072POPC    CB 9698   1.892   0.692  10.756
 2072POPC    OA 9699   1.815   0.700  10.637
 2072POPC     P 9700   1.759   0.845  10.611
 2072POPC    OB 9701   1.859   0.936  10.669
 2072POPC    OC 9702   1.633   0.836  10.686
 2072POPC    OD 9703   1.742   0.856  10.457
 2072POPC    CC 9704   1.695   0.744  10.381
 2072POPC    CD 9705   1.805   0.651  10.324
 2072POPC    OE 9706   1.875   0.707  10.210
 2072POPC   C1A 9707   1.999   0.670  10.179
 2072POPC    OF 9708   2.064   0.599  10.257
 2072POPC   C1B 9709   2.043   0.732  10.051
 2072POPC   C1C 9710   2.150   0.658   9.972
 2072POPC   C1D 9711   2.104   0.647   9.826
 2072POPC   C1E 9712   2.218   0.601   9.736
 2072POPC   C1F 9713   2.163   0.548   9.603
 2072POPC   C1G 9714   2.277   0.511   9.508
 2072POPC   C1H 9715   2.219   0.446   9.383
 2072POPC   C1I 9716   2.326   0.424   9.276
 2072POPC   C1J 9717   2.293   0.442   9.149
 2072POPC   C1K 9718   2.149   0.481   9.113
 2072POPC   C1L 9719   2.112   0.450   8.968
 2072POPC   C1M 9720   2.112   0.300   8.940
 2072POPC   C1N 9721   2.066   0.262   8.799
 2072POPC   C1O 9722   2.168   0.297   8.692
 2072POPC   C1P 9723   2.131   0.238   8.555
 2072POPC   C1Q 9724   2.015   0.309   8.486
 2072POPC   C1R 9725   1.986   0.245   8.351
 2072POPC    CE 9726   1.736   0.517  10.292
 2072POPC    OG 9727   1.642   0.526  10.185
 2072POPC   C2A 9728   1.697   0.519  10.063
 2072POPC    OH 9729   1.795   0.447  10.045
 2072POPC   C2B 9730   1.613   0.582   9.959
 2072POPC   C2C 9731   1.656   0.547   9.817
 2072POPC   C2D 9732   1.539   0.571   9.722
 2072POPC   C2E 9733   1.576   0.536   9.578
 2072POPC   C2F 9734   1.451   0.538   9.489
 2072POPC   C2G 9735   1.485   0.528   9.341
 2072POPC   C2H 9736   1.363   0.570   9.259
 2072POPC   C2I 9737   1.382   0.589   9.108
 2072POPC   C2J 9738   1.269   0.682   9.062
 2072POPC   C2K 9739   1.277   0.740   8.921
 2072POPC   C2L 9740   1.181   0.860   8.911
 2072POPC   C2M 9741   1.215   0.960   8.800
 2072POPC   C2N 9742   1.175   0.914   8.659
 2072POPC   C2O 9743   1.197   1.025   8.557
 2072POPC   C2P 9744   1.143   0.985   8.419
 2073POPC   CN1 9745   0.028   4.082  10.523
 2073POPC   CN2 9746   0.252   4.133  10.537
 2073POPC   CN3 9747   0.166   4.037  10.728
 2073POPC   NTM 9748   0.130   4.127  10.618
 2073POPC    CA 9749   0.076   4.251  10.679
 2073POPC    CB 9750   0.167   4.369  10.717
 2073POPC    OA 9751   0.218   4.418  10.596
 2073POPC     P 9752   0.363   4.477  10.608
 2073POPC    OB 9753   0.427   4.368  10.685
 2073POPC    OC 9754   0.335   4.603  10.678
 2073POPC    OD 9755   0.406   4.485  10.458
 2073POPC    CC 9756   0.312   4.517  10.355
 2073POPC    CD 9757   0.254   4.391  10.288
 2073POPC    OE 9758   0.336   4.340  10.181
 2073POPC   C1A 9759   0.345   4.209  10.166
 2073POPC    OF 9760   0.293   4.132  10.248
 2073POPC   C1B 9761   0.442   4.177  10.060
 2073POPC   C1C 9762   0.393   4.072   9.962
 2073POPC   C1D 9763   0.316   4.124   9.841
 2073POPC   C1E 9764   0.310   4.007   9.744
 2073POPC   C1F 9765   0.259   4.040   9.605
 2073POPC   C1G 9766   0.300   3.923   9.516
 2073POPC   C1H 9767   0.275   3.949   9.368
 2073POPC   C1I 9768   0.362   3.852   9.288
 2073POPC   C1J 9769   0.401   3.879   9.164
 2073POPC   C1K 9770   0.358   4.007   9.093
 2073POPC   C1L 9771   0.344   3.984   8.942
 2073POPC   C1M 9772   0.208   3.924   8.905
 2073POPC   C1N 9773   0.198   3.878   8.759
 2073POPC   C1O 9774   0.236   3.986   8.657
 2073POPC   C1P 9775   0.229   3.928   8.515
 2073POPC   C1Q 9776   0.270   4.033   8.412
 2073POPC   C1R 9777   0.261   3.975   8.270
 2073POPC    CE 9778   0.104   4.410  10.256
 2073POPC    OG 9779   0.069   4.499  10.151
 2073POPC   C2A 9780   0.061   4.443  10.029
 2073POPC    OH 9781   0.038   4.323  10.018
 2073POPC   C2B 9782   0.046   4.546   9.924
 2073POPC   C2C 9783   0.111   4.504   9.792
 2073POPC   C2D 9784   0.106   4.621   9.694
 2073POPC   C2E 9785   0.152   4.577   9.555
 2073POPC   C2F 9786   0.162   4.696   9.460
 2073POPC   C2G 9787   0.200   4.648   9.319
 2073POPC   C2H 9788   0.243   4.767   9.233
 2073POPC   C2I 9789   0.295   4.722   9.097
 2073POPC   C2J 9790   0.395   4.824   9.042
 2073POPC   C2K 9791   0.453   4.783   8.907
 2073POPC   C2L 9792   0.543   4.894   8.852
 2073POPC   C2M 9793   0.572   4.871   8.704
 2073POPC   C2N 9794   0.615   5.001   8.637
 2073POPC   C2O 9795   0.620   4.983   8.485
 2073POPC   C2P 9796   0.658   5.113   8.415
 2074POPC   CN1 9797   5.455   1.519  10.736
 2074POPC   CN2 9798   5.428   1.328  10.604
 2074POPC   CN3 9799   5.392   1.307  10.834
 2074POPC   NTM 9800   5.477   1.375  10.735
 2074POPC    CA 9801   5.621   1.353  10.763
 2074POPC    CB 9802   5.684   1.212  10.756
 2074POPC    OA 9803   5.676   1.165  10.624
 2074POPC     P 9804   5.689   1.009  10.611
 2074POPC    OB 9805   5.600   0.961  10.718
 2074POPC    OC 9806   5.833   0.986  10.625
 2074POPC    OD 9807   5.627   0.994  10.468
 2074POPC    CC 9808   5.674   1.079  10.362
 2074POPC    CD 9809   5.569   1.181  10.312
 2074POPC    OE 9810   5.470   1.127  10.221
 2074POPC   C1A 9811   5.346   1.176  10.224
 2074POPC    OF 9812   5.316   1.262  10.308
 2074POPC   C1B 9813   5.255   1.097  10.137
 2074POPC   C1C 9814   5.143   1.172  10.064
 2074POPC   C1D 9815   5.189   1.219   9.927
 2074POPC   C1E 9816   5.067   1.261   9.844
 2074POPC   C1F 9817   5.109   1.315   9.708
 2074POPC   C1G 9818   4.986   1.358   9.629
 2074POPC   C1H 9819   5.028   1.413   9.493
 2074POPC   C1I 9820   4.905   1.445   9.407
 2074POPC   C1J 9821   4.913   1.426   9.276
 2074POPC   C1K 9822   5.045   1.376   9.216
 2074POPC   C1L 9823   5.052   1.384   9.063
 2074POPC   C1M 9824   5.028   1.525   9.009
 2074POPC   C1N 9825   5.062   1.542   8.860
 2074POPC   C1O 9826   4.999   1.435   8.771
 2074POPC   C1P 9827   4.946   1.491   8.638
 2074POPC   C1Q 9828   5.053   1.551   8.547
 2074POPC   C1R 9829   4.992   1.581   8.410
 2074POPC    CE 9830   5.642   1.306  10.263
 2074POPC    OG 9831   5.729   1.293  10.149
 2074POPC   C2A 9832   5.676   1.329  10.032
 2074POPC    OH 9833   5.575   1.399  10.028
 2074POPC   C2B 9834   5.767   1.302   9.919
 2074POPC   C2C 9835   5.691   1.254   9.795
 2074POPC   C2D 9836   5.788   1.235   9.678
 2074POPC   C2E 9837   5.712   1.183   9.556
 2074POPC   C2F 9838   5.802   1.170   9.433
 2074POPC   C2G 9839   5.719   1.114   9.318
 2074POPC   C2H 9840   5.796   1.103   9.186
 2074POPC   C2I 9841   5.706   1.031   9.085
 2074POPC   C2J 9842   5.772   1.010   8.949
 2074POPC   C2K 9843   5.688   0.909   8.871
 2074POPC   C2L 9844   5.749   0.875   8.735
 2074POPC   C2M 9845   5.668   0.764   8.668
 2074POPC   C2N 9846   5.721   0.735   8.527
 2074POPC   C2O 9847   5.651   0.614   8.466
 2074POPC   C2P 9848   5.707   0.584   8.327
 2075POPC   CN1 9849   4.697   1.972  10.622
 2075POPC   CN2 9850   4.774   1.789  10.505
 2075POPC   CN3 9851   4.676   1.756  10.719
 2075POPC   NTM 9852   4.764   1.843  10.641
 2075POPC    CA 9853   4.894   1.866  10.707
 2075POPC    CB 9854   4.991   1.748  10.736
 2075POPC    OA 9855   5.070   1.709  10.626
 2075POPC     P 9856   5.083   1.552  10.612
 2075POPC    OB 9857   4.946   1.517  10.579
 2075POPC    OC 9858   5.130   1.517  10.748
 2075POPC    OD 9859   5.201   1.565  10.508
 2075POPC    CC 9860   5.178   1.568  10.365
 2075POPC    CD 9861   5.058   1.642  10.303
 2075POPC    OE 9862   4.995   1.561  10.202
 2075POPC   C1A 9863   4.868   1.585  10.171
 2075POPC    OF 9864   4.797   1.647  10.251
 2075POPC   C1B 9865   4.821   1.503  10.057
 2075POPC   C1C 9866   4.718   1.577   9.972
 2075POPC   C1D 9867   4.776   1.659   9.856
 2075POPC   C1E 9868   4.660   1.719   9.776
 2075POPC   C1F 9869   4.700   1.774   9.639
 2075POPC   C1G 9870   4.576   1.808   9.557
 2075POPC   C1H 9871   4.610   1.846   9.412
 2075POPC   C1I 9872   4.483   1.853   9.325
 2075POPC   C1J 9873   4.488   1.830   9.194
 2075POPC   C1K 9874   4.620   1.798   9.123
 2075POPC   C1L 9875   4.606   1.783   8.970
 2075POPC   C1M 9876   4.579   1.916   8.899
 2075POPC   C1N 9877   4.581   1.907   8.746
 2075POPC   C1O 9878   4.460   1.834   8.685
 2075POPC   C1P 9879   4.448   1.853   8.533
 2075POPC   C1Q 9880   4.565   1.792   8.454
 2075POPC   C1R 9881   4.540   1.799   8.303
 2075POPC    CE 9882   5.092   1.788  10.264
 2075POPC    OG 9883   5.193   1.808  10.165
 2075POPC   C2A 9884   5.151   1.825  10.039
 2075POPC    OH 9885   5.031   1.841  10.014
 2075POPC   C2B 9886   5.262   1.826   9.941
 2075POPC   C2C 9887   5.222   1.758   9.809
 2075POPC   C2D 9888   5.344   1.735   9.719
 2075POPC   C2E 9889   5.299   1.677   9.585
 2075POPC   C2F 9890   5.418   1.647   9.493
 2075POPC   C2G 9891   5.367   1.599   9.357
 2075POPC   C2H 9892   5.483   1.572   9.260
 2075POPC   C2I 9893   5.427   1.521   9.127
 2075POPC   C2J 9894   5.539   1.484   9.029
 2075POPC   C2K 9895   5.480   1.415   8.906
 2075POPC   C2L 9896   5.589   1.370   8.809
 2075POPC   C2M 9897   5.526   1.288   8.696
 2075POPC   C2N 9898   5.630   1.239   8.595
 2075POPC   C2O 9899   5.562   1.151   8.490
 2075POPC   C2P 9900   5.662   1.102   8.385
 2076POPC   CN1 9901   3.933   0.633  10.834
 2076POPC   CN2 9902   3.819   0.734  10.656
 2076POPC   CN3 9903   3.763   0.793  10.883
 2076POPC   NTM 9904   3.802   0.685  10.793
 2076POPC    CA 9905   3.701   0.576  10.795
 2076POPC    CB 9906   3.552   0.608  10.766
 2076POPC    OA 9907   3.527   0.660  10.638
 2076POPC     P 9908   3.374   0.699  10.626
 2076POPC    OB 9909   3.364   0.810  10.722
 2076POPC    OC 9910   3.307   0.572  10.658
 2076POPC    OD 9911   3.365   0.735  10.474
 2076POPC    CC 9912   3.414   0.637  10.382
 2076POPC    CD 9913   3.526   0.691  10.291
 2076POPC    OE 9914   3.478   0.762  10.173
 2076POPC   C1A 9915   3.556   0.860  10.126
 2076POPC    OF 9916   3.669   0.872  10.172
 2076POPC   C1B 9917   3.498   0.942  10.016
 2076POPC   C1C 9918   3.600   1.018   9.929
 2076POPC   C1D 9919   3.591   0.969   9.784
 2076POPC   C1E 9920   3.679   1.039   9.677
 2076POPC   C1F 9921   3.830   1.031   9.699
 2076POPC   C1G 9922   3.918   1.065   9.578
 2076POPC   C1H 9923   3.925   0.967   9.460
 2076POPC   C1I 9924   4.041   1.009   9.370
 2076POPC   C1J 9925   4.061   0.981   9.241
 2076POPC   C1K 9926   3.974   0.897   9.147
 2076POPC   C1L 9927   4.007   0.938   9.003
 2076POPC   C1M 9928   3.969   0.833   8.898
 2076POPC   C1N 9929   4.027   0.867   8.760
 2076POPC   C1O 9930   3.929   0.944   8.671
 2076POPC   C1P 9931   3.981   0.978   8.531
 2076POPC   C1Q 9932   4.032   0.857   8.452
 2076POPC   C1R 9933   4.066   0.892   8.307
 2076POPC    CE 9934   3.623   0.573  10.265
 2076POPC    OG 9935   3.567   0.457  10.200
 2076POPC   C2A 9936   3.614   0.436  10.077
 2076POPC    OH 9937   3.723   0.479  10.042
 2076POPC   C2B 9938   3.537   0.337   9.999
 2076POPC   C2C 9939   3.517   0.394   9.858
 2076POPC   C2D 9940   3.450   0.296   9.763
 2076POPC   C2E 9941   3.421   0.369   9.632
 2076POPC   C2F 9942   3.349   0.281   9.531
 2076POPC   C2G 9943   3.303   0.368   9.415
 2076POPC   C2H 9944   3.226   0.287   9.310
 2076POPC   C2I 9945   3.168   0.383   9.207
 2076POPC   C2J 9946   3.092   0.311   9.097
 2076POPC   C2K 9947   3.034   0.413   8.999
 2076POPC   C2L 9948   2.961   0.344   8.884
 2076POPC   C2M 9949   2.910   0.447   8.784
 2076POPC   C2N 9950   2.855   0.377   8.660
 2076POPC   C2O 9951   2.824   0.478   8.550
 2076POPC   C2P 9952   2.790   0.406   8.420
 2077POPC   CN1 9953   1.291   0.019  10.840
 2077POPC   CN2 9954   1.272   0.120  10.623
 2077POPC   CN3 9955   1.240   0.251  10.819
 2077POPC   NTM 9956   1.219   0.118  10.761
 2077POPC    CA 9957   1.078   0.070  10.756
 2077POPC    CB 9958   0.965   0.174  10.739
 2077POPC    OA 9959   1.001   0.264  10.637
 2077POPC     P 9960   0.909   0.390  10.618
 2077POPC    OB 9961   0.995   0.486  10.690
 2077POPC    OC 9962   0.780   0.352  10.677
 2077POPC    OD 9963   0.909   0.398  10.462
 2077POPC    CC 9964   0.894   0.280  10.382
 2077POPC    CD 9965   1.027   0.226  10.324
 2077POPC    OE 9966   1.076   0.305  10.214
 2077POPC   C1A 9967   1.208   0.314  10.200
 2077POPC    OF 9968   1.281   0.286  10.296
 2077POPC   C1B 9969   1.246   0.382  10.074
 2077POPC   C1C 9970   1.371   0.320  10.013
 2077POPC   C1D 9971   1.346   0.232   9.891
 2077POPC   C1E 9972   1.483   0.196   9.832
 2077POPC   C1F 9973   1.477   0.147   9.687
 2077POPC   C1G 9974   1.616   0.161   9.624
 2077POPC   C1H 9975   1.615   0.131   9.474
 2077POPC   C1I 9976   1.744   0.178   9.408
 2077POPC   C1J 9977   1.742   0.214   9.279
 2077POPC   C1K 9978   1.610   0.204   9.203
 2077POPC   C1L 9979   1.624   0.186   9.051
 2077POPC   C1M 9980   1.690   0.053   9.012
 2077POPC   C1N 9981   1.674   0.019   8.864
 2077POPC   C1O 9982   1.730   0.127   8.771
 2077POPC   C1P 9983   1.746   0.080   8.626
 2077POPC   C1Q 9984   1.614   0.049   8.556
 2077POPC   C1R 9985   1.641   0.000   8.413
 2077POPC    CE 9986   1.012   0.076  10.291
 2077POPC    OG 9987   0.928   0.043  10.180
 2077POPC   C2A 9988   0.990   0.026  10.063
 2077POPC    OH 9989   1.112   0.007  10.059
 2077POPC   C2B 9990   0.896   0.008   9.950
 2077POPC   C2C 9991   0.949   0.066   9.819
 2077POPC   C2D 9992   0.844   0.053   9.710
 2077POPC   C2E 9993   0.892   0.107   9.575
 2077POPC   C2F 9994   0.779   0.097   9.472
 2077POPC   C2G 9995   0.823   0.146   9.333
 2077POPC   C2H 9996   0.706   0.138   9.235
 2077POPC   C2I 9997   0.747   0.184   9.095
 2077POPC   C2J 9998   0.630   0.187   8.997
 2077POPC   C2K 9999   0.676   0.250   8.866
 2077POPC   C2L10000   0.568   0.276   8.762
 2077POPC   C2M10001   0.620   0.381   8.664
 2077POPC   C2N10002   0.531   0.405   8.543
 2077POPC   C2O10003   0.585   0.523   8.462
 2077POPC   C2P10004   0.515   0.537   8.326
 2078POPC   CN110005   6.244   3.798  10.670
 2078POPC   CN210006   6.024   3.779  10.602
 2078POPC   CN310007   6.072   3.830  10.832
 2078POPC   NTM10008   6.115   3.752  10.715
 2078POPC    CA10009   6.135   3.608  10.745
 2078POPC    CB10010   6.018   3.517  10.783
 2078POPC    OA10011   5.918   3.516  10.683
 2078POPC     P10012   5.873   3.375  10.624
 2078POPC    OB10013   5.752   3.433  10.568
 2078POPC    OC10014   5.880   3.306  10.754
 2078POPC    OD10015   6.009   3.374  10.541
 2078POPC    CC10016   5.985   3.387  10.399
 2078POPC    CD10017   6.043   3.516  10.338
 2078POPC    OE10018   5.959   3.575  10.237
 2078POPC   C1A10019   5.974   3.704  10.211
 2078POPC    OF10020   6.030   3.775  10.296
 2078POPC   C1B10021   5.896   3.744  10.092
 2078POPC   C1C10022   5.949   3.867  10.018
 2078POPC   C1D10023   6.042   3.831   9.902
 2078POPC   C1E10024   6.061   3.958   9.818
 2078POPC   C1F10025   6.137   3.935   9.688
 2078POPC   C1G10026   6.126   4.062   9.604
 2078POPC   C1H10027   6.191   4.050   9.467
 2078POPC   C1I10028   6.160   4.176   9.386
 2078POPC   C1J10029   6.167   4.178   9.253
 2078POPC   C1K10030   6.210   4.054   9.174
 2078POPC   C1L10031   6.171   4.060   9.025
 2078POPC   C1M10032   6.234   4.180   8.954
 2078POPC   C1N10033   6.235   4.170   8.801
 2078POPC   C1O10034   6.097   4.164   8.736
 2078POPC   C1P10035   6.105   4.173   8.583
 2078POPC   C1Q10036   6.174   4.052   8.520
 2078POPC   C1R10037   6.181   4.064   8.368
 2078POPC    CE10038   6.194   3.502  10.307
 2078POPC    OG10039   6.242   3.402  10.217
 2078POPC   C2A10040   6.239   3.433  10.087
 2078POPC    OH10041   6.247   3.551  10.054
 2078POPC   C2B10042   6.262   3.315   9.999
 2078POPC   C2C10043   6.276   3.339   9.848
 2078POPC   C2D10044   6.281   3.205   9.772
 2078POPC   C2E10045   6.308   3.222   9.622
 2078POPC   C2F10046   6.255   3.107   9.536
 2078POPC   C2G10047   6.282   3.130   9.387
 2078POPC   C2H10048   6.207   3.029   9.298
 2078POPC   C2I10049   6.230   3.057   9.149
 2078POPC   C2J10050   6.142   2.972   9.057
 2078POPC   C2K10051   6.144   3.029   8.915
 2078POPC   C2L10052   6.073   2.941   8.811
 2078POPC   C2M10053   6.069   3.013   8.676
 2078POPC   C2N10054   6.022   2.920   8.564
 2078POPC   C2O10055   6.012   2.997   8.431
 2078POPC   C2P10056   5.971   2.903   8.317
 2079POPC   CN110057   0.986   3.253  10.798
 2079POPC   CN210058   1.088   3.287  10.585
 2079POPC   CN310059   1.223   3.219  10.772
 2079POPC   NTM10060   1.107   3.300  10.731
 2079POPC    CA10061   1.122   3.443  10.766
 2079POPC    CB10062   1.263   3.506  10.757
 2079POPC    OA10063   1.310   3.490  10.627
 2079POPC     P10064   1.465   3.514  10.609
 2079POPC    OB10065   1.504   3.376  10.645
 2079POPC    OC10066   1.489   3.619  10.710
 2079POPC    OD10067   1.471   3.550  10.457
 2079POPC    CC10068   1.361   3.612  10.386
 2079POPC    CD10069   1.260   3.512  10.324
 2079POPC    OE10070   1.316   3.433  10.216
 2079POPC   C1A10071   1.270   3.310  10.197
 2079POPC    OF10072   1.203   3.256  10.287
 2079POPC   C1B10073   1.342   3.244  10.086
 2079POPC   C1C10074   1.254   3.169   9.985
 2079POPC   C1D10075   1.183   3.261   9.886
 2079POPC   C1E10076   1.126   3.176   9.772
 2079POPC   C1F10077   1.059   3.262   9.665
 2079POPC   C1G10078   1.019   3.172   9.548
 2079POPC   C1H10079   0.951   3.249   9.435
 2079POPC   C1I10080   0.907   3.150   9.327
 2079POPC   C1J10081   0.906   3.187   9.200
 2079POPC   C1K10082   0.948   3.329   9.163
 2079POPC   C1L10083   0.932   3.358   9.014
 2079POPC   C1M10084   0.786   3.364   8.968
 2079POPC   C1N10085   0.773   3.386   8.818
 2079POPC   C1O10086   0.838   3.276   8.734
 2079POPC   C1P10087   0.783   3.270   8.592
 2079POPC   C1Q10088   0.810   3.394   8.507
 2079POPC   C1R10089   0.747   3.378   8.369
 2079POPC    CE10090   1.120   3.574  10.303
 2079POPC    OG10091   1.085   3.675  10.207
 2079POPC   C2A10092   1.047   3.636  10.086
 2079POPC    OH10093   1.064   3.520  10.048
 2079POPC   C2B10094   0.995   3.747  10.002
 2079POPC   C2C10095   0.997   3.721   9.851
 2079POPC   C2D10096   1.054   3.845   9.780
 2079POPC   C2E10097   1.067   3.830   9.628
 2079POPC   C2F10098   1.162   3.936   9.572
 2079POPC   C2G10099   1.178   3.921   9.420
 2079POPC   C2H10100   1.263   4.033   9.360
 2079POPC   C2I10101   1.258   4.023   9.207
 2079POPC   C2J10102   1.322   4.142   9.135
 2079POPC   C2K10103   1.292   4.127   8.986
 2079POPC   C2L10104   1.351   4.234   8.893
 2079POPC   C2M10105   1.304   4.199   8.752
 2079POPC   C2N10106   1.374   4.273   8.639
 2079POPC   C2O10107   1.323   4.218   8.505
 2079POPC   C2P10108   1.400   4.270   8.384
 2080POPC   CN110109   4.837   1.316  10.808
 2080POPC   CN210110   4.684   1.271  10.632
 2080POPC   CN310111   4.611   1.261  10.861
 2080POPC   NTM10112   4.723   1.234  10.769
 2080POPC    CA10113   4.771   1.094  10.768
 2080POPC    CB10114   4.670   0.980  10.790
 2080POPC    OA10115   4.551   1.006  10.719
 2080POPC     P10116   4.465   0.881  10.682
 2080POPC    OB10117   4.346   0.952  10.637
 2080POPC    OC10118   4.475   0.807  10.810
 2080POPC    OD10119   4.575   0.827  10.580
 2080POPC    CC10120   4.550   0.856  10.441
 2080POPC    CD10121   4.589   0.989  10.374
 2080POPC    OE10122   4.477   1.035  10.296
 2080POPC   C1A10123   4.443   1.163  10.300
 2080POPC    OF10124   4.478   1.233  10.396
 2080POPC   C1B10125   4.333   1.191  10.204
 2080POPC   C1C10126   4.359   1.308  10.108
 2080POPC   C1D10127   4.446   1.269   9.989
 2080POPC   C1E10128   4.433   1.370   9.876
 2080POPC   C1F10129   4.503   1.322   9.749
 2080POPC   C1G10130   4.485   1.421   9.634
 2080POPC   C1H10131   4.543   1.369   9.502
 2080POPC   C1I10132   4.542   1.482   9.400
 2080POPC   C1J10133   4.541   1.464   9.269
 2080POPC   C1K10134   4.539   1.324   9.206
 2080POPC   C1L10135   4.522   1.330   9.054
 2080POPC   C1M10136   4.642   1.396   8.985
 2080POPC   C1N10137   4.644   1.378   8.833
 2080POPC   C1O10138   4.535   1.453   8.756
 2080POPC   C1P10139   4.573   1.470   8.609
 2080POPC   C1Q10140   4.594   1.341   8.530
 2080POPC   C1R10141   4.634   1.371   8.385
 2080POPC    CE10142   4.727   0.982  10.302
 2080POPC    OG10143   4.780   0.860  10.246
 2080POPC   C2A10144   4.819   0.865  10.117
 2080POPC    OH10145   4.842   0.975  10.067
 2080POPC   C2B10146   4.854   0.734  10.053
 2080POPC   C2C10147   4.839   0.739   9.899
 2080POPC   C2D10148   4.808   0.608   9.824
 2080POPC   C2E10149   4.790   0.636   9.674
 2080POPC   C2F10150   4.749   0.518   9.585
 2080POPC   C2G10151   4.730   0.561   9.438
 2080POPC   C2H10152   4.693   0.443   9.346
 2080POPC   C2I10153   4.668   0.485   9.200
 2080POPC   C2J10154   4.634   0.365   9.111
 2080POPC   C2K10155   4.585   0.409   8.973
 2080POPC   C2L10156   4.544   0.295   8.879
 2080POPC   C2M10157   4.443   0.345   8.775
 2080POPC   C2N10158   4.420   0.249   8.659
 2080POPC   C2O10159   4.309   0.300   8.566
 2080POPC   C2P10160   4.305   0.221   8.435
 2081POPC   CN110161   5.113   6.243  10.695
 2081POPC   CN210162   5.261   6.097  10.581
 2081POPC   CN310163   5.214   6.059  10.809
 2081POPC   NTM10164   5.235   6.164  10.710
 2081POPC    CA10165   5.340   6.258  10.756
 2081POPC    CB10166   5.491   6.231  10.740
 2081POPC    OA10167   5.530   6.230  10.604
 2081POPC     P10168   5.682   6.271  10.595
 2081POPC    OB10169   5.751   6.194  10.700
 2081POPC    OC10170   5.661   6.416  10.614
 2081POPC    OD10171   5.712   6.228  10.448
 2081POPC    CC10172   5.628   6.284  10.346
 2081POPC    CD10173   5.543   6.178  10.274
 2081POPC    OE10174   5.615   6.112  10.166
 2081POPC   C1A10175   5.565   5.999  10.115
 2081POPC    OF10176   5.453   5.962  10.150
 2081POPC   C1B10177   5.656   5.933  10.019
 2081POPC   C1C10178   5.612   5.794   9.970
 2081POPC   C1D10179   5.509   5.803   9.858
 2081POPC   C1E10180   5.482   5.667   9.793
 2081POPC   C1F10181   5.372   5.685   9.689
 2081POPC   C1G10182   5.337   5.559   9.609
 2081POPC   C1H10183   5.218   5.588   9.517
 2081POPC   C1I10184   5.182   5.468   9.429
 2081POPC   C1J10185   5.225   5.460   9.303
 2081POPC   C1K10186   5.311   5.569   9.239
 2081POPC   C1L10187   5.344   5.536   9.093
 2081POPC   C1M10188   5.219   5.547   9.006
 2081POPC   C1N10189   5.218   5.454   8.885
 2081POPC   C1O10190   5.325   5.483   8.780
 2081POPC   C1P10191   5.278   5.427   8.646
 2081POPC   C1Q10192   5.376   5.455   8.531
 2081POPC   C1R10193   5.309   5.426   8.397
 2081POPC    CE10194   5.411   6.249  10.234
 2081POPC    OG10195   5.421   6.345  10.129
 2081POPC   C2A10196   5.370   6.303  10.013
 2081POPC    OH10197   5.268   6.234  10.014
 2081POPC   C2B10198   5.418   6.379   9.896
 2081POPC   C2C10199   5.471   6.284   9.788
 2081POPC   C2D10200   5.521   6.363   9.667
 2081POPC   C2E10201   5.581   6.270   9.561
 2081POPC   C2F10202   5.633   6.350   9.441
 2081POPC   C2G10203   5.696   6.255   9.339
 2081POPC   C2H10204   5.754   6.332   9.220
 2081POPC   C2I10205   5.814   6.234   9.118
 2081POPC   C2J10206   5.882   6.308   9.003
 2081POPC   C2K10207   5.933   6.208   8.899
 2081POPC   C2L10208   6.010   6.280   8.788
 2081POPC   C2M10209   6.046   6.184   8.675
 2081POPC   C2N10210   6.127   6.254   8.567
 2081POPC   C2O10211   6.150   6.162   8.447
 2081POPC   C2P10212   6.239   6.228   8.342
 2082POPC   CN110213   4.704   4.325  10.723
 2082POPC   CN210214   4.634   4.169  10.561
 2082POPC   CN310215   4.573   4.132  10.788
 2082POPC   NTM10216   4.681   4.182  10.701
 2082POPC    CA10217   4.809   4.109  10.718
 2082POPC    CB10218   4.809   3.956  10.739
 2082POPC    OA10219   4.711   3.897  10.656
 2082POPC     P10220   4.736   3.749  10.613
 2082POPC    OB10221   4.617   3.721  10.535
 2082POPC    OC10222   4.751   3.688  10.747
 2082POPC    OD10223   4.872   3.779  10.539
 2082POPC    CC10224   4.871   3.793  10.395
 2082POPC    CD10225   4.803   3.916  10.331
 2082POPC    OE10226   4.702   3.877  10.236
 2082POPC   C1A10227   4.604   3.962  10.205
 2082POPC    OF10228   4.584   4.059  10.279
 2082POPC   C1B10229   4.511   3.904  10.105
 2082POPC   C1C10230   4.459   4.002   9.999
 2082POPC   C1D10231   4.564   4.040   9.895
 2082POPC   C1E10232   4.498   4.119   9.781
 2082POPC   C1F10233   4.599   4.152   9.671
 2082POPC   C1G10234   4.529   4.231   9.561
 2082POPC   C1H10235   4.623   4.268   9.447
 2082POPC   C1I10236   4.554   4.370   9.356
 2082POPC   C1J10237   4.554   4.359   9.224
 2082POPC   C1K10238   4.624   4.243   9.153
 2082POPC   C1L10239   4.597   4.239   9.002
 2082POPC   C1M10240   4.633   4.372   8.933
 2082POPC   C1N10241   4.666   4.361   8.785
 2082POPC   C1O10242   4.556   4.303   8.696
 2082POPC   C1P10243   4.578   4.341   8.549
 2082POPC   C1Q10244   4.714   4.298   8.492
 2082POPC   C1R10245   4.731   4.350   8.349
 2082POPC    CE10246   4.912   4.013  10.282
 2082POPC    OG10247   5.001   3.965  10.181
 2082POPC   C2A10248   4.975   4.004  10.055
 2082POPC    OH10249   4.900   4.100  10.035
 2082POPC   C2B10250   5.069   3.945   9.957
 2082POPC   C2C10251   5.027   3.965   9.812
 2082POPC   C2D10252   5.140   3.922   9.717
 2082POPC   C2E10253   5.090   3.921   9.573
 2082POPC   C2F10254   5.196   3.873   9.474
 2082POPC   C2G10255   5.128   3.845   9.340
 2082POPC   C2H10256   5.225   3.808   9.227
 2082POPC   C2I10257   5.141   3.764   9.106
 2082POPC   C2J10258   5.219   3.737   8.978
 2082POPC   C2K10259   5.125   3.662   8.883
 2082POPC   C2L10260   5.176   3.633   8.742
 2082POPC   C2M10261   5.082   3.532   8.677
 2082POPC   C2N10262   5.113   3.506   8.530
 2082POPC   C2O10263   5.017   3.401   8.473
 2082POPC   C2P10264   5.049   3.372   8.326
 2083POPC   CN110265   3.979   4.961  10.792
 2083POPC   CN210266   3.803   4.926  10.636
 2083POPC   CN310267   3.757   4.996  10.861
 2083POPC   NTM10268   3.843   4.913  10.777
 2083POPC    CA10269   3.835   4.776  10.833
 2083POPC    CB10270   3.729   4.675  10.785
 2083POPC    OA10271   3.755   4.630  10.653
 2083POPC     P10272   3.661   4.506  10.622
 2083POPC    OB10273   3.538   4.528  10.699
 2083POPC    OC10274   3.763   4.410  10.668
 2083POPC    OD10275   3.650   4.518  10.467
 2083POPC    CC10276   3.768   4.497  10.391
 2083POPC    CD10277   3.827   4.627  10.333
 2083POPC    OE10278   3.760   4.677  10.216
 2083POPC   C1A10279   3.766   4.808  10.192
 2083POPC    OF10280   3.825   4.883  10.272
 2083POPC   C1B10281   3.681   4.845  10.077
 2083POPC   C1C10282   3.756   4.908   9.960
 2083POPC   C1D10283   3.837   4.814   9.870
 2083POPC   C1E10284   3.874   4.900   9.749
 2083POPC   C1F10285   3.966   4.839   9.643
 2083POPC   C1G10286   3.983   4.951   9.540
 2083POPC   C1H10287   4.073   4.925   9.419
 2083POPC   C1I10288   4.065   5.053   9.336
 2083POPC   C1J10289   4.104   5.066   9.210
 2083POPC   C1K10290   4.165   4.952   9.130
 2083POPC   C1L10291   4.153   4.975   8.979
 2083POPC   C1M10292   4.235   5.094   8.929
 2083POPC   C1N10293   4.262   5.090   8.779
 2083POPC   C1O10294   4.135   5.105   8.694
 2083POPC   C1P10295   4.164   5.092   8.544
 2083POPC   C1Q10296   4.209   4.950   8.508
 2083POPC   C1R10297   4.235   4.938   8.358
 2083POPC    CE10298   3.978   4.606  10.314
 2083POPC    OG10299   4.024   4.487  10.249
 2083POPC   C2A10300   4.063   4.507  10.123
 2083POPC    OH10301   4.092   4.619  10.084
 2083POPC   C2B10302   4.089   4.381  10.048
 2083POPC   C2C10303   4.009   4.379   9.917
 2083POPC   C2D10304   4.049   4.259   9.831
 2083POPC   C2E10305   3.969   4.258   9.700
 2083POPC   C2F10306   4.022   4.154   9.601
 2083POPC   C2G10307   3.946   4.166   9.469
 2083POPC   C2H10308   4.012   4.088   9.356
 2083POPC   C2I10309   3.947   4.128   9.223
 2083POPC   C2J10310   4.017   4.075   9.098
 2083POPC   C2K10311   3.942   4.133   8.978
 2083POPC   C2L10312   3.989   4.086   8.841
 2083POPC   C2M10313   3.888   4.138   8.739
 2083POPC   C2N10314   3.915   4.090   8.596
 2083POPC   C2O10315   3.795   4.124   8.508
 2083POPC   C2P10316   3.809   4.067   8.367
 2084POPC   CN110317   1.174   2.918  10.578
 2084POPC   CN210318   1.142   2.692  10.616
 2084POPC   CN310319   1.080   2.839  10.789
 2084POPC   NTM10320   1.181   2.817  10.685
 2084POPC    CA10321   1.316   2.821  10.747
 2084POPC    CB10322   1.400   2.694  10.773
 2084POPC    OA10323   1.429   2.637  10.648
 2084POPC     P10324   1.447   2.480  10.649
 2084POPC    OB10325   1.327   2.445  10.727
 2084POPC    OC10326   1.579   2.473  10.711
 2084POPC    OD10327   1.431   2.459  10.493
 2084POPC    CC10328   1.495   2.547  10.399
 2084POPC    CD10329   1.398   2.650  10.339
 2084POPC    OE10330   1.311   2.597  10.236
 2084POPC   C1A10331   1.187   2.644  10.228
 2084POPC    OF10332   1.140   2.712  10.320
 2084POPC   C1B10333   1.111   2.578  10.119
 2084POPC   C1C10334   1.021   2.676  10.043
 2084POPC   C1D10335   1.082   2.721   9.910
 2084POPC   C1E10336   0.972   2.784   9.826
 2084POPC   C1F10337   1.008   2.788   9.678
 2084POPC   C1G10338   0.882   2.806   9.593
 2084POPC   C1H10339   0.915   2.799   9.444
 2084POPC   C1I10340   0.790   2.801   9.357
 2084POPC   C1J10341   0.800   2.772   9.228
 2084POPC   C1K10342   0.938   2.740   9.170
 2084POPC   C1L10343   0.950   2.755   9.018
 2084POPC   C1M10344   0.933   2.899   8.969
 2084POPC   C1N10345   0.968   2.920   8.821
 2084POPC   C1O10346   0.884   2.834   8.727
 2084POPC   C1P10347   0.880   2.889   8.584
 2084POPC   C1Q10348   1.016   2.897   8.514
 2084POPC   C1R10349   0.999   2.959   8.375
 2084POPC    CE10350   1.475   2.779  10.304
 2084POPC    OG10351   1.562   2.778  10.191
 2084POPC   C2A10352   1.510   2.822  10.076
 2084POPC    OH10353   1.399   2.876  10.074
 2084POPC   C2B10354   1.601   2.804   9.961
 2084POPC   C2C10355   1.524   2.769   9.834
 2084POPC   C2D10356   1.613   2.694   9.736
 2084POPC   C2E10357   1.534   2.650   9.613
 2084POPC   C2F10358   1.614   2.546   9.534
 2084POPC   C2G10359   1.546   2.513   9.401
 2084POPC   C2H10360   1.638   2.423   9.317
 2084POPC   C2I10361   1.595   2.423   9.170
 2084POPC   C2J10362   1.701   2.357   9.082
 2084POPC   C2K10363   1.657   2.361   8.936
 2084POPC   C2L10364   1.758   2.292   8.844
 2084POPC   C2M10365   1.706   2.295   8.700
 2084POPC   C2N10366   1.807   2.233   8.603
 2084POPC   C2O10367   1.755   2.244   8.459
 2084POPC   C2P10368   1.855   2.183   8.360
 2085POPC   CN110369   3.571   1.853  10.586
 2085POPC   CN210370   3.407   1.703  10.523
 2085POPC   CN310371   3.463   1.728  10.759
 2085POPC   NTM10372   3.514   1.723  10.622
 2085POPC    CA10373   3.619   1.618  10.613
 2085POPC    CB10374   3.588   1.476  10.667
 2085POPC    OA10375   3.458   1.438  10.624
 2085POPC     P10376   3.414   1.286  10.631
 2085POPC    OB10377   3.270   1.309  10.616
 2085POPC    OC10378   3.468   1.261  10.766
 2085POPC    OD10379   3.489   1.222  10.506
 2085POPC    CC10380   3.542   1.279  10.383
 2085POPC    CD10381   3.473   1.392  10.306
 2085POPC    OE10382   3.377   1.347  10.209
 2085POPC   C1A10383   3.275   1.427  10.184
 2085POPC    OF10384   3.245   1.518  10.262
 2085POPC   C1B10385   3.193   1.371  10.074
 2085POPC   C1C10386   3.144   1.479   9.979
 2085POPC   C1D10387   3.206   1.472   9.840
 2085POPC   C1E10388   3.128   1.572   9.755
 2085POPC   C1F10389   3.166   1.577   9.607
 2085POPC   C1G10390   3.079   1.684   9.541
 2085POPC   C1H10391   3.120   1.708   9.396
 2085POPC   C1I10392   3.030   1.811   9.329
 2085POPC   C1J10393   3.010   1.795   9.198
 2085POPC   C1K10394   3.079   1.675   9.133
 2085POPC   C1L10395   3.053   1.660   8.982
 2085POPC   C1M10396   3.101   1.782   8.904
 2085POPC   C1N10397   3.116   1.759   8.754
 2085POPC   C1O10398   2.985   1.721   8.683
 2085POPC   C1P10399   2.998   1.735   8.531
 2085POPC   C1Q10400   3.108   1.646   8.471
 2085POPC   C1R10401   3.128   1.679   8.322
 2085POPC    CE10402   3.584   1.484  10.248
 2085POPC    OG10403   3.647   1.459  10.121
 2085POPC   C2A10404   3.595   1.520  10.015
 2085POPC    OH10405   3.518   1.615  10.029
 2085POPC   C2B10406   3.666   1.488   9.888
 2085POPC   C2C10407   3.578   1.458   9.767
 2085POPC   C2D10408   3.665   1.415   9.649
 2085POPC   C2E10409   3.582   1.376   9.527
 2085POPC   C2F10410   3.667   1.304   9.422
 2085POPC   C2G10411   3.584   1.258   9.303
 2085POPC   C2H10412   3.658   1.156   9.216
 2085POPC   C2I10413   3.586   1.141   9.082
 2085POPC   C2J10414   3.640   1.023   9.000
 2085POPC   C2K10415   3.581   1.023   8.859
 2085POPC   C2L10416   3.600   0.887   8.791
 2085POPC   C2M10417   3.543   0.894   8.649
 2085POPC   C2N10418   3.543   0.757   8.580
 2085POPC   C2O10419   3.482   0.773   8.441
 2085POPC   C2P10420   3.481   0.641   8.364
 2086POPC   CN110421   3.014   6.240  10.691
 2086POPC   CN210422   2.971   6.051  10.558
 2086POPC   CN310423   2.871   6.065  10.772
 2086POPC   NTM10424   2.993   6.095  10.697
 2086POPC    CA10425   3.111   6.034  10.764
 2086POPC    CB10426   3.126   5.880  10.772
 2086POPC    OA10427   3.153   5.827  10.644
 2086POPC     P10428   3.123   5.673  10.635
 2086POPC    OB10429   2.989   5.664  10.697
 2086POPC    OC10430   3.236   5.624  10.715
 2086POPC    OD10431   3.122   5.649  10.481
 2086POPC    CC10432   3.212   5.718  10.393
 2086POPC    CD10433   3.152   5.840  10.319
 2086POPC    OE10434   3.078   5.803  10.202
 2086POPC   C1A10435   2.964   5.867  10.177
 2086POPC    OF10436   2.918   5.943  10.264
 2086POPC   C1B10437   2.894   5.807  10.061
 2086POPC   C1C10438   2.825   5.904   9.965
 2086POPC   C1D10439   2.922   5.980   9.874
 2086POPC   C1E10440   2.847   6.039   9.754
 2086POPC   C1F10441   2.941   6.114   9.659
 2086POPC   C1G10442   2.869   6.161   9.532
 2086POPC   C1H10443   2.964   6.235   9.438
 2086POPC   C1I10444   2.891   6.307   9.324
 2086POPC   C1J10445   2.893   6.276   9.194
 2086POPC   C1K10446   2.968   6.161   9.128
 2086POPC   C1L10447   2.990   6.175   8.976
 2086POPC   C1M10448   3.065   6.303   8.937
 2086POPC   C1N10449   3.108   6.314   8.790
 2086POPC   C1O10450   2.994   6.300   8.689
 2086POPC   C1P10451   3.019   6.369   8.555
 2086POPC   C1Q10452   3.128   6.304   8.470
 2086POPC   C1R10453   3.140   6.373   8.334
 2086POPC    CE10454   3.255   5.953  10.302
 2086POPC    OG10455   3.374   5.932  10.226
 2086POPC   C2A10456   3.366   5.965  10.097
 2086POPC    OH10457   3.291   6.056  10.062
 2086POPC   C2B10458   3.477   5.908  10.017
 2086POPC   C2C10459   3.457   5.903   9.865
 2086POPC   C2D10460   3.565   5.821   9.792
 2086POPC   C2E10461   3.543   5.832   9.641
 2086POPC   C2F10462   3.625   5.740   9.551
 2086POPC   C2G10463   3.566   5.743   9.409
 2086POPC   C2H10464   3.663   5.699   9.300
 2086POPC   C2I10465   3.594   5.689   9.164
 2086POPC   C2J10466   3.691   5.667   9.047
 2086POPC   C2K10467   3.613   5.628   8.921
 2086POPC   C2L10468   3.706   5.594   8.805
 2086POPC   C2M10469   3.628   5.535   8.688
 2086POPC   C2N10470   3.723   5.489   8.577
 2086POPC   C2O10471   3.646   5.422   8.463
 2086POPC   C2P10472   3.742   5.366   8.357
 2087POPC   CN110473   5.743   4.974  10.752
 2087POPC   CN210474   5.910   5.019  10.592
 2087POPC   CN310475   5.976   4.953  10.810
 2087POPC   NTM10476   5.877   5.032  10.735
 2087POPC    CA10477   5.874   5.173  10.782
 2087POPC    CB10478   6.004   5.257  10.788
 2087POPC    OA10479   6.058   5.265  10.658
 2087POPC     P10480   6.209   5.310  10.655
 2087POPC    OB10481   6.269   5.191  10.719
 2087POPC    OC10482   6.211   5.436  10.730
 2087POPC    OD10483   6.238   5.322  10.502
 2087POPC    CC10484   6.137   5.377  10.415
 2087POPC    CD10485   6.044   5.272  10.351
 2087POPC    OE10486   6.104   5.201  10.240
 2087POPC   C1A10487   6.058   5.081  10.207
 2087POPC    OF10488   5.988   5.018  10.289
 2087POPC   C1B10489   6.132   5.026  10.091
 2087POPC   C1C10490   6.056   4.928  10.002
 2087POPC   C1D10491   5.966   4.994   9.897
 2087POPC   C1E10492   5.919   4.885   9.801
 2087POPC   C1F10493   5.840   4.936   9.680
 2087POPC   C1G10494   5.813   4.818   9.587
 2087POPC   C1H10495   5.748   4.860   9.455
 2087POPC   C1I10496   5.737   4.739   9.361
 2087POPC   C1J10497   5.751   4.752   9.230
 2087POPC   C1K10498   5.774   4.890   9.166
 2087POPC   C1L10499   5.758   4.892   9.014
 2087POPC   C1M10500   5.620   4.845   8.966
 2087POPC   C1N10501   5.594   4.875   8.818
 2087POPC   C1O10502   5.682   4.795   8.722
 2087POPC   C1P10503   5.641   4.817   8.575
 2087POPC   C1Q10504   5.669   4.959   8.526
 2087POPC   C1R10505   5.630   4.974   8.379
 2087POPC    CE10506   5.908   5.339  10.323
 2087POPC    OG10507   5.910   5.444  10.226
 2087POPC   C2A10508   5.901   5.405  10.099
 2087POPC    OH10509   5.857   5.293  10.070
 2087POPC   C2B10510   5.926   5.517  10.006
 2087POPC   C2C10511   5.867   5.492   9.867
 2087POPC   C2D10512   5.899   5.612   9.779
 2087POPC   C2E10513   5.857   5.586   9.635
 2087POPC   C2F10514   5.898   5.704   9.549
 2087POPC   C2G10515   5.885   5.667   9.402
 2087POPC   C2H10516   5.945   5.777   9.314
 2087POPC   C2I10517   5.956   5.724   9.171
 2087POPC   C2J10518   6.033   5.821   9.082
 2087POPC   C2K10519   6.060   5.753   8.948
 2087POPC   C2L10520   6.148   5.838   8.857
 2087POPC   C2M10521   6.180   5.760   8.731
 2087POPC   C2N10522   6.269   5.840   8.636
 2087POPC   C2O10523   6.299   5.760   8.510
 2087POPC   C2P10524   6.382   5.842   8.411
 2088POPC   CN110525   4.801   2.886  10.836
 2088POPC   CN210526   4.747   2.808  10.618
 2088POPC   CN310527   4.631   2.720  10.807
 2088POPC   NTM10528   4.760   2.769  10.759
 2088POPC    CA10529   4.874   2.675  10.769
 2088POPC    CB10530   4.853   2.522  10.763
 2088POPC    OA10531   4.756   2.490  10.665
 2088POPC     P10532   4.753   2.342  10.618
 2088POPC    OB10533   4.645   2.285  10.700
 2088POPC    OC10534   4.888   2.283  10.632
 2088POPC    OD10535   4.712   2.374  10.470
 2088POPC    CC10536   4.802   2.458  10.395
 2088POPC    CD10537   4.740   2.566  10.304
 2088POPC    OE10538   4.647   2.511  10.208
 2088POPC   C1A10539   4.540   2.583  10.181
 2088POPC    OF10540   4.504   2.671  10.259
 2088POPC   C1B10541   4.459   2.522  10.073
 2088POPC   C1C10542   4.396   2.627   9.980
 2088POPC   C1D10543   4.497   2.695   9.887
 2088POPC   C1E10544   4.417   2.788   9.797
 2088POPC   C1F10545   4.493   2.843   9.677
 2088POPC   C1G10546   4.391   2.921   9.595
 2088POPC   C1H10547   4.439   2.966   9.457
 2088POPC   C1I10548   4.318   3.027   9.386
 2088POPC   C1J10549   4.292   3.002   9.258
 2088POPC   C1K10550   4.387   2.915   9.175
 2088POPC   C1L10551   4.371   2.935   9.023
 2088POPC   C1M10552   4.378   3.082   8.979
 2088POPC   C1N10553   4.405   3.102   8.830
 2088POPC   C1O10554   4.313   3.022   8.736
 2088POPC   C1P10555   4.349   3.056   8.592
 2088POPC   C1Q10556   4.302   2.948   8.494
 2088POPC   C1R10557   4.349   2.981   8.352
 2088POPC    CE10558   4.848   2.657  10.241
 2088POPC    OG10559   4.951   2.599  10.157
 2088POPC   C2A10560   4.974   2.660  10.040
 2088POPC    OH10561   4.904   2.755  10.005
 2088POPC   C2B10562   5.080   2.597   9.956
 2088POPC   C2C10563   5.061   2.621   9.806
 2088POPC   C2D10564   5.133   2.518   9.718
 2088POPC   C2E10565   5.101   2.540   9.569
 2088POPC   C2F10566   5.127   2.415   9.483
 2088POPC   C2G10567   5.080   2.436   9.339
 2088POPC   C2H10568   5.073   2.306   9.258
 2088POPC   C2I10569   5.013   2.331   9.119
 2088POPC   C2J10570   4.999   2.202   9.037
 2088POPC   C2K10571   4.944   2.230   8.897
 2088POPC   C2L10572   4.946   2.103   8.811
 2088POPC   C2M10573   4.900   2.132   8.668
 2088POPC   C2N10574   4.917   2.010   8.578
 2088POPC   C2O10575   4.873   2.043   8.435
 2088POPC   C2P10576   4.901   1.927   8.339
 2089POPC   CN110577   2.876   3.890  10.820
 2089POPC   CN210578   3.004   3.839  10.633
 2089POPC   CN310579   3.039   3.718  10.835
 2089POPC   NTM10580   3.010   3.850  10.780
 2089POPC    CA10581   3.110   3.954  10.819
 2089POPC    CB10582   3.262   3.924  10.817
 2089POPC    OA10583   3.307   3.882  10.690
 2089POPC     P10584   3.428   3.782  10.692
 2089POPC    OB10585   3.393   3.682  10.795
 2089POPC    OC10586   3.550   3.860  10.719
 2089POPC    OD10587   3.429   3.725  10.545
 2089POPC    CC10588   3.411   3.819  10.438
 2089POPC    CD10589   3.268   3.836  10.380
 2089POPC    OE10590   3.230   3.740  10.279
 2089POPC   C1A10591   3.101   3.716  10.257
 2089POPC    OF10592   3.017   3.756  10.338
 2089POPC   C1B10593   3.080   3.619  10.147
 2089POPC   C1C10594   2.951   3.629  10.067
 2089POPC   C1D10595   2.978   3.681   9.925
 2089POPC   C1E10596   2.863   3.638   9.833
 2089POPC   C1F10597   2.876   3.700   9.694
 2089POPC   C1G10598   2.763   3.649   9.605
 2089POPC   C1H10599   2.764   3.718   9.469
 2089POPC   C1I10600   2.658   3.657   9.376
 2089POPC   C1J10601   2.692   3.630   9.251
 2089POPC   C1K10602   2.834   3.660   9.203
 2089POPC   C1L10603   2.844   3.684   9.052
 2089POPC   C1M10604   2.766   3.809   9.007
 2089POPC   C1N10605   2.781   3.840   8.858
 2089POPC   C1O10606   2.741   3.724   8.766
 2089POPC   C1P10607   2.738   3.765   8.619
 2089POPC   C1Q10608   2.873   3.816   8.568
 2089POPC   C1R10609   2.864   3.853   8.420
 2089POPC    CE10610   3.254   3.983  10.335
 2089POPC    OG10611   3.345   4.027  10.233
 2089POPC   C2A10612   3.294   4.036  10.110
 2089POPC    OH10613   3.175   4.017  10.086
 2089POPC   C2B10614   3.396   4.078  10.010
 2089POPC   C2C10615   3.365   4.025   9.870
 2089POPC   C2D10616   3.477   4.059   9.771
 2089POPC   C2E10617   3.438   4.010   9.632
 2089POPC   C2F10618   3.551   4.024   9.531
 2089POPC   C2G10619   3.501   3.977   9.394
 2089POPC   C2H10620   3.615   3.963   9.293
 2089POPC   C2I10621   3.562   3.913   9.158
 2089POPC   C2J10622   3.677   3.878   9.065
 2089POPC   C2K10623   3.631   3.827   8.929
 2089POPC   C2L10624   3.753   3.789   8.846
 2089POPC   C2M10625   3.718   3.745   8.704
 2089POPC   C2N10626   3.847   3.726   8.625
 2089POPC   C2O10627   3.821   3.695   8.477
 2089POPC   C2P10628   3.952   3.692   8.399
 2090POPC   CN110629   5.752   3.711  10.899
 2090POPC   CN210630   5.672   3.738  10.673
 2090POPC   CN310631   5.542   3.804  10.861
 2090POPC   NTM10632   5.636   3.703  10.812
 2090POPC    CA10633   5.581   3.566  10.822
 2090POPC    CB10634   5.464   3.524  10.731
 2090POPC    OA10635   5.363   3.624  10.727
 2090POPC     P10636   5.300   3.654  10.584
 2090POPC    OB10637   5.227   3.775  10.627
 2090POPC    OC10638   5.241   3.523  10.565
 2090POPC    OD10639   5.432   3.671  10.499
 2090POPC    CC10640   5.448   3.567  10.400
 2090POPC    CD10641   5.568   3.578  10.306
 2090POPC    OE10642   5.529   3.644  10.184
 2090POPC   C1A10643   5.548   3.775  10.177
 2090POPC    OF10644   5.633   3.827  10.248
 2090POPC   C1B10645   5.464   3.841  10.074
 2090POPC   C1C10646   5.540   3.904   9.957
 2090POPC   C1D10647   5.588   3.800   9.855
 2090POPC   C1E10648   5.650   3.872   9.736
 2090POPC   C1F10649   5.703   3.773   9.633
 2090POPC   C1G10650   5.772   3.852   9.522
 2090POPC   C1H10651   5.823   3.762   9.410
 2090POPC   C1I10652   5.902   3.848   9.312
 2090POPC   C1J10653   5.909   3.815   9.183
 2090POPC   C1K10654   5.839   3.689   9.131
 2090POPC   C1L10655   5.832   3.682   8.979
 2090POPC   C1M10656   5.967   3.701   8.909
 2090POPC   C1N10657   5.953   3.676   8.759
 2090POPC   C1O10658   6.083   3.702   8.683
 2090POPC   C1P10659   6.065   3.686   8.532
 2090POPC   C1Q10660   6.017   3.546   8.492
 2090POPC   C1R10661   6.012   3.532   8.340
 2090POPC    CE10662   5.635   3.440  10.289
 2090POPC    OG10663   5.565   3.323  10.241
 2090POPC   C2A10664   5.607   3.276  10.123
 2090POPC    OH10665   5.689   3.341  10.058
 2090POPC   C2B10666   5.540   3.152  10.073
 2090POPC   C2C10667   5.571   3.128   9.924
 2090POPC   C2D10668   5.466   3.051   9.841
 2090POPC   C2E10669   5.507   3.051   9.693
 2090POPC   C2F10670   5.393   3.006   9.601
 2090POPC   C2G10671   5.431   3.013   9.452
 2090POPC   C2H10672   5.314   2.970   9.363
 2090POPC   C2I10673   5.347   2.974   9.213
 2090POPC   C2J10674   5.226   2.928   9.130
 2090POPC   C2K10675   5.247   2.944   8.979
 2090POPC   C2L10676   5.115   2.913   8.907
 2090POPC   C2M10677   5.101   2.988   8.774
 2090POPC   C2N10678   5.132   2.904   8.650
 2090POPC   C2O10679   5.101   2.985   8.524
 2090POPC   C2P10680   5.110   2.902   8.396
 2091POPC   CN110681   4.338   6.324  10.522
 2091POPC   CN210682   4.269   6.527  10.458
 2091POPC   CN310683   4.335   6.494  10.688
 2091POPC   NTM10684   4.263   6.438  10.574
 2091POPC    CA10685   4.121   6.409  10.603
 2091POPC    CB10686   4.025   6.526  10.638
 2091POPC    OA10687   3.888   6.489  10.629
 2091POPC     P10688   3.790   6.615  10.607
 2091POPC    OB10689   3.875   6.733  10.598
 2091POPC    OC10690   3.705   6.600  10.726
 2091POPC    OD10691   3.708   6.571  10.480
 2091POPC    CC10692   3.754   6.548  10.346
 2091POPC    CD10693   3.900   6.562  10.299
 2091POPC    OE10694   3.925   6.687  10.231
 2091POPC   C1A10695   4.044   6.708  10.175
 2091POPC    OF10696   4.140   6.642  10.217
 2091POPC   C1B10697   4.037   6.805  10.063
 2091POPC   C1C10698   4.166   6.852   9.996
 2091POPC   C1D10699   4.151   6.850   9.844
 2091POPC   C1E10700   4.233   6.960   9.775
 2091POPC   C1F10701   4.217   6.954   9.623
 2091POPC   C1G10702   4.284   7.073   9.555
 2091POPC   C1H10703   4.333   7.038   9.415
 2091POPC   C1I10704   4.395   7.159   9.346
 2091POPC   C1J10705   4.390   7.165   9.214
 2091POPC   C1K10706   4.327   7.048   9.139
 2091POPC   C1L10707   4.316   7.067   8.987
 2091POPC   C1M10708   4.453   7.081   8.920
 2091POPC   C1N10709   4.454   7.054   8.770
 2091POPC   C1O10710   4.385   7.161   8.685
 2091POPC   C1P10711   4.409   7.138   8.536
 2091POPC   C1Q10712   4.357   7.003   8.486
 2091POPC   C1R10713   4.389   6.982   8.338
 2091POPC    CE10714   3.927   6.436  10.215
 2091POPC    OG10715   3.865   6.434  10.087
 2091POPC   C2A10716   3.944   6.468   9.984
 2091POPC    OH10717   4.067   6.474   9.993
 2091POPC   C2B10718   3.864   6.484   9.862
 2091POPC   C2C10719   3.936   6.530   9.737
 2091POPC   C2D10720   3.830   6.511   9.630
 2091POPC   C2E10721   3.862   6.571   9.495
 2091POPC   C2F10722   3.740   6.544   9.407
 2091POPC   C2G10723   3.749   6.618   9.275
 2091POPC   C2H10724   3.620   6.596   9.198
 2091POPC   C2I10725   3.623   6.673   9.066
 2091POPC   C2J10726   3.494   6.644   8.990
 2091POPC   C2K10727   3.488   6.720   8.858
 2091POPC   C2L10728   3.368   6.670   8.778
 2091POPC   C2M10729   3.335   6.767   8.666
 2091POPC   C2N10730   3.246   6.701   8.561
 2091POPC   C2O10731   3.194   6.808   8.466
 2091POPC   C2P10732   3.146   6.748   8.334
 2092POPC   CN110733   1.786   4.470  10.877
 2092POPC   CN210734   1.794   4.350  10.669
 2092POPC   CN310735   1.750   4.234  10.872
 2092POPC   NTM10736   1.826   4.345  10.813
 2092POPC    CA10737   1.971   4.330  10.836
 2092POPC    CB10738   2.039   4.200  10.793
 2092POPC    OA10739   2.048   4.181  10.652
 2092POPC     P10740   2.039   4.024  10.622
 2092POPC    OB10741   1.908   4.005  10.684
 2092POPC    OC10742   2.166   3.992  10.692
 2092POPC    OD10743   2.042   4.016  10.465
 2092POPC    CC10744   2.077   4.128  10.384
 2092POPC    CD10745   1.963   4.186  10.298
 2092POPC    OE10746   1.939   4.114  10.174
 2092POPC   C1A10747   1.825   4.132  10.108
 2092POPC    OF10748   1.751   4.224  10.142
 2092POPC   C1B10749   1.809   4.046   9.987
 2092POPC   C1C10750   1.671   4.040   9.920
 2092POPC   C1D10751   1.630   4.172   9.854
 2092POPC   C1E10752   1.532   4.164   9.737
 2092POPC   C1F10753   1.515   4.306   9.682
 2092POPC   C1G10754   1.463   4.317   9.539
 2092POPC   C1H10755   1.491   4.458   9.484
 2092POPC   C1I10756   1.411   4.482   9.355
 2092POPC   C1J10757   1.461   4.483   9.232
 2092POPC   C1K10758   1.610   4.469   9.196
 2092POPC   C1L10759   1.639   4.497   9.048
 2092POPC   C1M10760   1.592   4.636   9.004
 2092POPC   C1N10761   1.669   4.692   8.883
 2092POPC   C1O10762   1.656   4.615   8.752
 2092POPC   C1P10763   1.720   4.701   8.642
 2092POPC   C1Q10764   1.716   4.638   8.504
 2092POPC   C1R10765   1.758   4.740   8.398
 2092POPC    CE10766   1.996   4.336  10.282
 2092POPC    OG10767   2.130   4.361  10.235
 2092POPC   C2A10768   2.138   4.451  10.138
 2092POPC    OH10769   2.075   4.557  10.148
 2092POPC   C2B10770   2.255   4.430  10.051
 2092POPC   C2C10771   2.217   4.441   9.903
 2092POPC   C2D10772   2.333   4.408   9.809
 2092POPC   C2E10773   2.287   4.416   9.664
 2092POPC   C2F10774   2.399   4.381   9.565
 2092POPC   C2G10775   2.344   4.372   9.423
 2092POPC   C2H10776   2.455   4.339   9.323
 2092POPC   C2I10777   2.399   4.315   9.183
 2092POPC   C2J10778   2.512   4.290   9.084
 2092POPC   C2K10779   2.459   4.253   8.945
 2092POPC   C2L10780   2.574   4.240   8.845
 2092POPC   C2M10781   2.522   4.195   8.709
 2092POPC   C2N10782   2.633   4.199   8.603
 2092POPC   C2O10783   2.577   4.155   8.468
 2092POPC   C2P10784   2.680   4.173   8.356
 2093POPC   CN110785   2.886   2.291  10.755
 2093POPC   CN210786   2.721   2.338  10.596
 2093POPC   CN310787   2.716   2.456  10.804
 2093POPC   NTM10788   2.744   2.327  10.741
 2093POPC    CA10789   2.665   2.220  10.807
 2093POPC    CB10790   2.511   2.214  10.797
 2093POPC    OA10791   2.469   2.214  10.662
 2093POPC     P10792   2.313   2.216  10.645
 2093POPC    OB10793   2.299   2.348  10.711
 2093POPC    OC10794   2.288   2.089  10.715
 2093POPC    OD10795   2.315   2.221  10.488
 2093POPC    CC10796   2.386   2.122  10.412
 2093POPC    CD10797   2.508   2.180  10.337
 2093POPC    OE10798   2.475   2.273  10.232
 2093POPC   C1A10799   2.563   2.369  10.204
 2093POPC    OF10800   2.645   2.403  10.291
 2093POPC   C1B10801   2.522   2.446  10.084
 2093POPC   C1C10802   2.636   2.499   9.998
 2093POPC   C1D10803   2.708   2.394   9.913
 2093POPC   C1E10804   2.788   2.468   9.806
 2093POPC   C1F10805   2.852   2.380   9.698
 2093POPC   C1G10806   2.883   2.471   9.579
 2093POPC   C1H10807   2.936   2.400   9.454
 2093POPC   C1I10808   2.920   2.494   9.334
 2093POPC   C1J10809   2.921   2.454   9.207
 2093POPC   C1K10810   2.947   2.309   9.165
 2093POPC   C1L10811   2.998   2.304   9.021
 2093POPC   C1M10812   3.042   2.162   8.983
 2093POPC   C1N10813   3.115   2.153   8.849
 2093POPC   C1O10814   3.024   2.163   8.726
 2093POPC   C1P10815   3.103   2.132   8.599
 2093POPC   C1Q10816   3.013   2.129   8.476
 2093POPC   C1R10817   3.092   2.095   8.350
 2093POPC    CE10818   2.609   2.070  10.300
 2093POPC    OG10819   2.577   1.961  10.213
 2093POPC   C2A10820   2.621   1.969  10.087
 2093POPC    OH10821   2.683   2.068  10.048
 2093POPC   C2B10822   2.584   1.851  10.005
 2093POPC   C2C10823   2.623   1.869   9.857
 2093POPC   C2D10824   2.533   1.784   9.766
 2093POPC   C2E10825   2.540   1.829   9.619
 2093POPC   C2F10826   2.440   1.751   9.534
 2093POPC   C2G10827   2.403   1.812   9.398
 2093POPC   C2H10828   2.333   1.705   9.315
 2093POPC   C2I10829   2.282   1.755   9.179
 2093POPC   C2J10830   2.243   1.639   9.088
 2093POPC   C2K10831   2.194   1.695   8.954
 2093POPC   C2L10832   2.167   1.592   8.845
 2093POPC   C2M10833   2.126   1.672   8.721
 2093POPC   C2N10834   2.099   1.593   8.593
 2093POPC   C2O10835   2.067   1.694   8.483
 2093POPC   C2P10836   2.035   1.629   8.348
 2094POPC   CN110837   5.264   5.355  10.740
 2094POPC   CN210838   5.448   5.461  10.649
 2094POPC   CN310839   5.463   5.391  10.875
 2094POPC   NTM10840   5.373   5.446  10.774
 2094POPC    CA10841   5.311   5.572  10.824
 2094POPC    CB10842   5.389   5.705  10.829
 2094POPC    OA10843   5.424   5.748  10.699
 2094POPC     P10844   5.564   5.816  10.686
 2094POPC    OB10845   5.644   5.715  10.760
 2094POPC    OC10846   5.521   5.938  10.755
 2094POPC    OD10847   5.574   5.803  10.528
 2094POPC    CC10848   5.463   5.821  10.437
 2094POPC    CD10849   5.415   5.693  10.364
 2094POPC    OE10850   5.510   5.624  10.279
 2094POPC   C1A10851   5.495   5.493  10.265
 2094POPC    OF10852   5.454   5.425  10.360
 2094POPC   C1B10853   5.565   5.440  10.147
 2094POPC   C1C10854   5.511   5.304  10.101
 2094POPC   C1D10855   5.438   5.316   9.967
 2094POPC   C1E10856   5.509   5.237   9.857
 2094POPC   C1F10857   5.422   5.237   9.732
 2094POPC   C1G10858   5.480   5.150   9.621
 2094POPC   C1H10859   5.392   5.155   9.496
 2094POPC   C1I10860   5.420   5.033   9.409
 2094POPC   C1J10861   5.448   5.041   9.279
 2094POPC   C1K10862   5.454   5.173   9.201
 2094POPC   C1L10863   5.419   5.149   9.054
 2094POPC   C1M10864   5.269   5.117   9.035
 2094POPC   C1N10865   5.236   5.032   8.912
 2094POPC   C1O10866   5.288   5.088   8.780
 2094POPC   C1P10867   5.224   5.018   8.660
 2094POPC   C1Q10868   5.282   5.070   8.529
 2094POPC   C1R10869   5.203   5.022   8.408
 2094POPC    CE10870   5.276   5.714  10.299
 2094POPC    OG10871   5.223   5.827  10.227
 2094POPC   C2A10872   5.213   5.810  10.094
 2094POPC    OH10873   5.237   5.701  10.043
 2094POPC   C2B10874   5.158   5.928  10.020
 2094POPC   C2C10875   5.123   5.897   9.873
 2094POPC   C2D10876   5.159   6.012   9.777
 2094POPC   C2E10877   5.159   5.966   9.630
 2094POPC   C2F10878   5.230   6.063   9.535
 2094POPC   C2G10879   5.264   5.999   9.399
 2094POPC   C2H10880   5.328   6.099   9.303
 2094POPC   C2I10881   5.372   6.037   9.169
 2094POPC   C2J10882   5.420   6.145   9.072
 2094POPC   C2K10883   5.466   6.090   8.936
 2094POPC   C2L10884   5.507   6.204   8.842
 2094POPC   C2M10885   5.568   6.152   8.711
 2094POPC   C2N10886   5.617   6.267   8.623
 2094POPC   C2O10887   5.686   6.215   8.497
 2094POPC   C2P10888   5.743   6.330   8.413
 2095POPC   CN110889   2.463   5.141  10.862
 2095POPC   CN210890   2.481   5.041  10.645
 2095POPC   CN310891   2.377   4.920  10.820
 2095POPC   NTM10892   2.485   5.016  10.790
 2095POPC    CA10893   2.618   4.963  10.831
 2095POPC    CB10894   2.663   4.823  10.785
 2095POPC    OA10895   2.641   4.812  10.646
 2095POPC     P10896   2.633   4.662  10.600
 2095POPC    OB10897   2.518   4.624  10.685
 2095POPC    OC10898   2.770   4.627  10.634
 2095POPC    OD10899   2.598   4.688  10.451
 2095POPC    CC10900   2.683   4.777  10.377
 2095POPC    CD10901   2.599   4.892  10.320
 2095POPC    OE10902   2.519   4.849  10.208
 2095POPC   C1A10903   2.392   4.888  10.199
 2095POPC    OF10904   2.345   4.963  10.286
 2095POPC   C1B10905   2.321   4.809  10.096
 2095POPC   C1C10906   2.278   4.874   9.964
 2095POPC   C1D10907   2.386   4.932   9.871
 2095POPC   C1E10908   2.324   4.942   9.731
 2095POPC   C1F10909   2.379   5.049   9.637
 2095POPC   C1G10910   2.278   5.059   9.521
 2095POPC   C1H10911   2.305   5.166   9.416
 2095POPC   C1I10912   2.178   5.182   9.332
 2095POPC   C1J10913   2.176   5.174   9.199
 2095POPC   C1K10914   2.305   5.149   9.120
 2095POPC   C1L10915   2.298   5.195   8.974
 2095POPC   C1M10916   2.285   5.347   8.959
 2095POPC   C1N10917   2.304   5.396   8.815
 2095POPC   C1O10918   2.199   5.340   8.717
 2095POPC   C1P10919   2.223   5.391   8.575
 2095POPC   C1Q10920   2.357   5.343   8.517
 2095POPC   C1R10921   2.382   5.402   8.379
 2095POPC    CE10922   2.693   5.010  10.290
 2095POPC    OG10923   2.778   4.989  10.178
 2095POPC   C2A10924   2.720   5.017  10.062
 2095POPC    OH10925   2.650   5.118  10.052
 2095POPC   C2B10926   2.774   4.932   9.954
 2095POPC   C2C10927   2.757   4.986   9.813
 2095POPC   C2D10928   2.853   4.908   9.725
 2095POPC   C2E10929   2.839   4.948   9.579
 2095POPC   C2F10930   2.957   4.895   9.499
 2095POPC   C2G10931   2.926   4.915   9.351
 2095POPC   C2H10932   3.037   4.862   9.260
 2095POPC   C2I10933   2.978   4.850   9.120
 2095POPC   C2J10934   3.076   4.794   9.018
 2095POPC   C2K10935   2.997   4.751   8.895
 2095POPC   C2L10936   3.086   4.695   8.785
 2095POPC   C2M10937   3.000   4.628   8.678
 2095POPC   C2N10938   3.085   4.572   8.565
 2095POPC   C2O10939   2.999   4.491   8.468
 2095POPC   C2P10940   3.084   4.436   8.353
 2096POPC   CN110941   5.573   0.437  10.697
 2096POPC   CN210942   5.563   0.640  10.577
 2096POPC   CN310943   5.647   0.640  10.797
 2096POPC   NTM10944   5.545   0.581  10.710
 2096POPC    CA10945   5.411   0.601  10.771
 2096POPC    CB10946   5.334   0.735  10.762
 2096POPC    OA10947   5.282   0.756  10.633
 2096POPC     P10948   5.188   0.881  10.617
 2096POPC    OB10949   5.230   0.981  10.718
 2096POPC    OC10950   5.057   0.816  10.638
 2096POPC    OD10951   5.217   0.919  10.468
 2096POPC    CC10952   5.202   0.817  10.367
 2096POPC    CD10953   5.332   0.750  10.318
 2096POPC    OE10954   5.402   0.822  10.214
 2096POPC   C1A10955   5.530   0.797  10.191
 2096POPC    OF10956   5.597   0.733  10.274
 2096POPC   C1B10957   5.575   0.859  10.065
 2096POPC   C1C10958   5.724   0.857  10.035
 2096POPC   C1D10959   5.737   0.807   9.891
 2096POPC   C1E10960   5.877   0.822   9.832
 2096POPC   C1F10961   5.874   0.760   9.692
 2096POPC   C1G10962   6.008   0.773   9.621
 2096POPC   C1H10963   6.000   0.705   9.485
 2096POPC   C1I10964   6.133   0.717   9.411
 2096POPC   C1J10965   6.133   0.737   9.279
 2096POPC   C1K10966   5.999   0.747   9.205
 2096POPC   C1L10967   6.016   0.740   9.053
 2096POPC   C1M10968   6.064   0.604   9.003
 2096POPC   C1N10969   6.074   0.597   8.850
 2096POPC   C1O10970   6.175   0.697   8.792
 2096POPC   C1P10971   6.207   0.667   8.645
 2096POPC   C1Q10972   6.087   0.685   8.552
 2096POPC   C1R10973   6.121   0.644   8.408
 2096POPC    CE10974   5.295   0.607  10.274
 2096POPC    OG10975   5.216   0.593  10.155
 2096POPC   C2A10976   5.285   0.582  10.040
 2096POPC    OH10977   5.403   0.545  10.043
 2096POPC   C2B10978   5.200   0.581   9.920
 2096POPC   C2C10979   5.261   0.661   9.804
 2096POPC   C2D10980   5.176   0.647   9.678
 2096POPC   C2E10981   5.229   0.736   9.566
 2096POPC   C2F10982   5.149   0.720   9.436
 2096POPC   C2G10983   5.205   0.817   9.332
 2096POPC   C2H10984   5.145   0.801   9.193
 2096POPC   C2I10985   5.205   0.908   9.102
 2096POPC   C2J10986   5.164   0.890   8.956
 2096POPC   C2K10987   5.209   1.010   8.872
 2096POPC   C2L10988   5.165   0.993   8.726
 2096POPC   C2M10989   5.199   1.116   8.643
 2096POPC   C2N10990   5.151   1.100   8.498
 2096POPC   C2O10991   5.182   1.224   8.415
 2096POPC   C2P10992   5.116   1.215   8.278
 2097POPC   CN110993   2.526   1.583  10.641
 2097POPC   CN210994   2.389   1.763  10.565
 2097POPC   CN310995   2.454   1.759  10.793
 2097POPC   NTM10996   2.418   1.674  10.680
 2097POPC    CA10997   2.306   1.591  10.728
 2097POPC    CB10998   2.165   1.649  10.728
 2097POPC    OA10999   2.118   1.644  10.596
 2097POPC     P11000   1.965   1.684  10.583
 2097POPC    OB11001   1.967   1.801  10.671
 2097POPC    OC11002   1.927   1.551  10.636
 2097POPC    OD11003   1.976   1.712  10.429
 2097POPC    CC11004   2.030   1.615  10.338
 2097POPC    CD11005   2.159   1.667  10.271
 2097POPC    OE11006   2.135   1.765  10.167
 2097POPC   C1A11007   2.210   1.875  10.168
 2097POPC    OF11008   2.306   1.881  10.245
 2097POPC   C1B11009   2.155   1.979  10.077
 2097POPC   C1C11010   2.248   2.090  10.029
 2097POPC   C1D11011   2.291   2.070   9.883
 2097POPC   C1E11012   2.348   2.196   9.819
 2097POPC   C1F11013   2.453   2.152   9.717
 2097POPC   C1G11014   2.476   2.241   9.595
 2097POPC   C1H11015   2.570   2.169   9.499
 2097POPC   C1I11016   2.619   2.264   9.391
 2097POPC   C1J11017   2.590   2.257   9.261
 2097POPC   C1K11018   2.507   2.147   9.194
 2097POPC   C1L11019   2.508   2.163   9.041
 2097POPC   C1M11020   2.650   2.152   8.984
 2097POPC   C1N11021   2.663   2.163   8.832
 2097POPC   C1O11022   2.620   2.297   8.772
 2097POPC   C1P11023   2.668   2.316   8.628
 2097POPC   C1Q11024   2.621   2.205   8.533
 2097POPC   C1R11025   2.662   2.230   8.388
 2097POPC    CE11026   2.246   1.547  10.231
 2097POPC    OG11027   2.237   1.495  10.098
 2097POPC   C2A11028   2.333   1.532  10.014
 2097POPC    OH11029   2.446   1.554  10.059
 2097POPC   C2B11030   2.305   1.503   9.871
 2097POPC   C2C11031   2.217   1.610   9.805
 2097POPC   C2D11032   2.181   1.567   9.662
 2097POPC   C2E11033   2.064   1.644   9.601
 2097POPC   C2F11034   2.022   1.581   9.467
 2097POPC   C2G11035   1.924   1.671   9.393
 2097POPC   C2H11036   1.903   1.624   9.249
 2097POPC   C2I11037   1.831   1.732   9.166
 2097POPC   C2J11038   1.828   1.692   9.018
 2097POPC   C2K11039   1.770   1.799   8.926
 2097POPC   C2L11040   1.769   1.748   8.782
 2097POPC   C2M11041   1.715   1.852   8.683
 2097POPC   C2N11042   1.713   1.794   8.541
 2097POPC   C2O11043   1.639   1.886   8.445
 2097POPC   C2P11044   1.642   1.832   8.302
 2098POPC   CN111045   1.099   5.364  10.762
 2098POPC   CN211046   1.128   5.517  10.585
 2098POPC   CN311047   1.153   5.593  10.809
 2098POPC   NTM11048   1.076   5.502  10.722
 2098POPC    CA11049   0.929   5.526  10.726
 2098POPC    CB11050   0.876   5.671  10.735
 2098POPC    OA11051   0.950   5.748  10.644
 2098POPC     P11052   0.918   5.903  10.635
 2098POPC    OB11053   1.047   5.955  10.680
 2098POPC    OC11054   0.804   5.924  10.724
 2098POPC    OD11055   0.890   5.921  10.480
 2098POPC    CC11056   0.833   5.819  10.396
 2098POPC    CD11057   0.933   5.716  10.336
 2098POPC    OE11058   1.026   5.773  10.241
 2098POPC   C1A11059   1.142   5.712  10.224
 2098POPC    OF11060   1.182   5.629  10.307
 2098POPC   C1B11061   1.220   5.772  10.112
 2098POPC   C1C11062   1.302   5.667  10.038
 2098POPC   C1D11063   1.236   5.607   9.914
 2098POPC   C1E11064   1.340   5.518   9.847
 2098POPC   C1F11065   1.306   5.476   9.704
 2098POPC   C1G11066   1.435   5.429   9.637
 2098POPC   C1H11067   1.419   5.406   9.487
 2098POPC   C1I11068   1.548   5.446   9.416
 2098POPC   C1J11069   1.559   5.451   9.284
 2098POPC   C1K11070   1.443   5.410   9.192
 2098POPC   C1L11071   1.465   5.468   9.052
 2098POPC   C1M11072   1.367   5.409   8.950
 2098POPC   C1N11073   1.390   5.455   8.806
 2098POPC   C1O11074   1.537   5.440   8.766
 2098POPC   C1P11075   1.577   5.401   8.622
 2098POPC   C1Q11076   1.512   5.478   8.507
 2098POPC   C1R11077   1.573   5.431   8.375
 2098POPC    CE11078   0.855   5.595  10.283
 2098POPC    OG11079   0.790   5.617  10.158
 2098POPC   C2A11080   0.859   5.586  10.049
 2098POPC    OH11081   0.939   5.493  10.050
 2098POPC   C2B11082   0.807   5.660   9.932
 2098POPC   C2C11083   0.812   5.589   9.797
 2098POPC   C2D11084   0.727   5.674   9.702
 2098POPC   C2E11085   0.750   5.642   9.555
 2098POPC   C2F11086   0.668   5.739   9.469
 2098POPC   C2G11087   0.717   5.737   9.325
 2098POPC   C2H11088   0.644   5.840   9.239
 2098POPC   C2I11089   0.717   5.854   9.106
 2098POPC   C2J11090   0.655   5.962   9.017
 2098POPC   C2K11091   0.747   5.988   8.897
 2098POPC   C2L11092   0.690   6.098   8.807
 2098POPC   C2M11093   0.790   6.133   8.697
 2098POPC   C2N11094   0.732   6.241   8.605
 2098POPC   C2O11095   0.831   6.279   8.495
 2098POPC   C2P11096   0.770   6.383   8.401
 2099POPC   CN111097   0.074   3.151  10.767
 2099POPC   CN211098  -0.110   3.155  10.618
 2099POPC   CN311099  -0.144   3.192  10.853
 2099POPC   NTM11100  -0.068   3.117  10.754
 2099POPC    CA11101  -0.085   2.972  10.779
 2099POPC    CB11102  -0.225   2.908  10.771
 2099POPC    OA11103  -0.278   2.921  10.641
 2099POPC     P11104  -0.427   2.868  10.633
 2099POPC    OB11105  -0.481   2.960  10.734
 2099POPC    OC11106  -0.392   2.728  10.664
 2099POPC    OD11107  -0.440   2.911  10.483
 2099POPC    CC11108  -0.360   2.848  10.383
 2099POPC    CD11109  -0.292   2.958  10.299
 2099POPC    OE11110  -0.343   2.973  10.164
 2099POPC   C1A11111  -0.324   3.093  10.107
 2099POPC    OF11112  -0.283   3.186  10.177
 2099POPC   C1B11113  -0.361   3.095   9.963
 2099POPC   C1C11114  -0.381   3.237   9.910
 2099POPC   C1D11115  -0.418   3.244   9.761
 2099POPC   C1E11116  -0.444   3.390   9.722
 2099POPC   C1F11117  -0.321   3.465   9.670
 2099POPC   C1G11118  -0.307   3.457   9.517
 2099POPC   C1H11119  -0.166   3.497   9.474
 2099POPC   C1I11120  -0.154   3.584   9.348
 2099POPC   C1J11121  -0.162   3.546   9.220
 2099POPC   C1K11122  -0.195   3.407   9.165
 2099POPC   C1L11123  -0.172   3.400   9.014
 2099POPC   C1M11124  -0.023   3.407   8.979
 2099POPC   C1N11125   0.009   3.446   8.834
 2099POPC   C1O11126  -0.021   3.338   8.730
 2099POPC   C1P11127   0.033   3.382   8.594
 2099POPC   C1Q11128   0.001   3.280   8.485
 2099POPC   C1R11129   0.049   3.330   8.348
 2099POPC    CE11130  -0.139   2.936  10.308
 2099POPC    OG11131  -0.077   2.840  10.221
 2099POPC   C2A11132  -0.040   2.890  10.101
 2099POPC    OH11133  -0.010   3.009  10.093
 2099POPC   C2B11134  -0.008   2.786  10.001
 2099POPC   C2C11135  -0.058   2.823   9.861
 2099POPC   C2D11136  -0.042   2.707   9.763
 2099POPC   C2E11137  -0.093   2.745   9.623
 2099POPC   C2F11138  -0.094   2.626   9.527
 2099POPC   C2G11139  -0.143   2.671   9.389
 2099POPC   C2H11140  -0.176   2.553   9.297
 2099POPC   C2I11141  -0.228   2.603   9.162
 2099POPC   C2J11142  -0.286   2.488   9.080
 2099POPC   C2K11143  -0.328   2.534   8.941
 2099POPC   C2L11144  -0.376   2.415   8.857
 2099POPC   C2M11145  -0.415   2.458   8.716
 2099POPC   C2N11146  -0.456   2.337   8.632
 2099POPC   C2O11147  -0.500   2.380   8.492
 2099POPC   C2P11148  -0.536   2.258   8.406
 2100POPC   CN111149   4.332   3.644  10.740
 2100POPC   CN211150   4.377   3.492  10.566
 2100POPC   CN311151   4.273   3.410  10.762
 2100POPC   NTM11152   4.373   3.506  10.713
 2100POPC    CA11153   4.505   3.485  10.778
 2100POPC    CB11154   4.575   3.349  10.767
 2100POPC    OA11155   4.607   3.319  10.632
 2100POPC     P11156   4.644   3.169  10.610
 2100POPC    OB11157   4.527   3.100  10.668
 2100POPC    OC11158   4.767   3.164  10.689
 2100POPC    OD11159   4.664   3.159  10.456
 2100POPC    CC11160   4.731   3.266  10.386
 2100POPC    CD11161   4.633   3.361  10.314
 2100POPC    OE11162   4.576   3.307  10.193
 2100POPC   C1A11163   4.455   3.349  10.158
 2100POPC    OF11164   4.384   3.407  10.241
 2100POPC   C1B11165   4.412   3.287  10.031
 2100POPC   C1C11166   4.320   3.371   9.943
 2100POPC   C1D11167   4.389   3.486   9.870
 2100POPC   C1E11168   4.297   3.534   9.756
 2100POPC   C1F11169   4.361   3.641   9.667
 2100POPC   C1G11170   4.268   3.671   9.549
 2100POPC   C1H11171   4.326   3.770   9.448
 2100POPC   C1I11172   4.221   3.806   9.343
 2100POPC   C1J11173   4.229   3.784   9.211
 2100POPC   C1K11174   4.348   3.721   9.140
 2100POPC   C1L11175   4.360   3.757   8.991
 2100POPC   C1M11176   4.376   3.907   8.966
 2100POPC   C1N11177   4.416   3.945   8.823
 2100POPC   C1O11178   4.322   3.890   8.715
 2100POPC   C1P11179   4.338   3.961   8.579
 2100POPC   C1Q11180   4.478   3.950   8.520
 2100POPC   C1R11181   4.485   4.008   8.378
 2100POPC    CE11182   4.692   3.503  10.302
 2100POPC    OG11183   4.816   3.530  10.235
 2100POPC   C2A11184   4.805   3.566  10.106
 2100POPC    OH11185   4.697   3.604  10.061
 2100POPC   C2B11186   4.935   3.580  10.037
 2100POPC   C2C11187   4.921   3.601   9.886
 2100POPC   C2D11188   5.042   3.548   9.808
 2100POPC   C2E11189   5.019   3.554   9.657
 2100POPC   C2F11190   5.112   3.463   9.577
 2100POPC   C2G11191   5.071   3.448   9.430
 2100POPC   C2H11192   5.187   3.395   9.346
 2100POPC   C2I11193   5.150   3.368   9.200
 2100POPC   C2J11194   5.277   3.366   9.114
 2100POPC   C2K11195   5.249   3.316   8.973
 2100POPC   C2L11196   5.368   3.336   8.878
 2100POPC   C2M11197   5.338   3.267   8.745
 2100POPC   C2N11198   5.431   3.305   8.629
 2100POPC   C2O11199   5.383   3.231   8.504
 2100POPC   C2P11200   5.464   3.268   8.379
 2101POPC   CN111201   0.252   2.453  10.679
 2101POPC   CN211202   0.379   2.287  10.576
 2101POPC   CN311203   0.333   2.265  10.806
 2101POPC   NTM11204   0.366   2.363  10.702
 2101POPC    CA11205   0.487   2.440  10.739
 2101POPC    CB11206   0.625   2.372  10.754
 2101POPC    OA11207   0.667   2.326  10.628
 2101POPC     P11208   0.761   2.199  10.637
 2101POPC    OB11209   0.665   2.112  10.708
 2101POPC    OC11210   0.872   2.259  10.712
 2101POPC    OD11211   0.773   2.164  10.483
 2101POPC    CC11212   0.779   2.264  10.380
 2101POPC    CD11213   0.640   2.297  10.319
 2101POPC    OE11214   0.593   2.201  10.223
 2101POPC   C1A11215   0.462   2.181  10.207
 2101POPC    OF11216   0.384   2.234  10.288
 2101POPC   C1B11217   0.432   2.074  10.109
 2101POPC   C1C11218   0.304   2.094  10.028
 2101POPC   C1D11219   0.323   2.177   9.900
 2101POPC   C1E11220   0.196   2.165   9.815
 2101POPC   C1F11221   0.206   2.230   9.677
 2101POPC   C1G11222   0.080   2.194   9.596
 2101POPC   C1H11223   0.082   2.248   9.453
 2101POPC   C1I11224  -0.042   2.200   9.376
 2101POPC   C1J11225  -0.045   2.194   9.243
 2101POPC   C1K11226   0.078   2.236   9.161
 2101POPC   C1L11227   0.069   2.199   9.012
 2101POPC   C1M11228  -0.013   2.303   8.936
 2101POPC   C1N11229   0.004   2.305   8.783
 2101POPC   C1O11230  -0.048   2.181   8.710
 2101POPC   C1P11231  -0.077   2.210   8.562
 2101POPC   C1Q11232   0.046   2.258   8.483
 2101POPC   C1R11233   0.011   2.289   8.338
 2101POPC    CE11234   0.640   2.444  10.274
 2101POPC    OG11235   0.716   2.474  10.157
 2101POPC   C2A11236   0.650   2.462  10.042
 2101POPC    OH11237   0.527   2.477  10.037
 2101POPC   C2B11238   0.743   2.469   9.928
 2101POPC   C2C11239   0.699   2.401   9.799
 2101POPC   C2D11240   0.814   2.420   9.702
 2101POPC   C2E11241   0.781   2.375   9.561
 2101POPC   C2F11242   0.905   2.394   9.473
 2101POPC   C2G11243   0.873   2.348   9.331
 2101POPC   C2H11244   0.998   2.348   9.244
 2101POPC   C2I11245   0.961   2.285   9.111
 2101POPC   C2J11246   1.082   2.268   9.019
 2101POPC   C2K11247   1.038   2.189   8.896
 2101POPC   C2L11248   1.153   2.168   8.798
 2101POPC   C2M11249   1.103   2.087   8.679
 2101POPC   C2N11250   1.212   2.072   8.573
 2101POPC   C2O11251   1.158   1.995   8.453
 2101POPC   C2P11252   1.264   1.982   8.344
 2102POPC   CN111253   1.334   4.683  10.770
 2102POPC   CN211254   1.274   4.528  10.599
 2102POPC   CN311255   1.170   4.534  10.817
 2102POPC   NTM11256   1.295   4.545  10.744
 2102POPC    CA11257   1.392   4.450  10.803
 2102POPC    CB11258   1.395   4.302  10.759
 2102POPC    OA11259   1.484   4.279  10.652
 2102POPC     P11260   1.469   4.131  10.597
 2102POPC    OB11261   1.326   4.119  10.574
 2102POPC    OC11262   1.520   4.067  10.720
 2102POPC    OD11263   1.566   4.138  10.474
 2102POPC    CC11264   1.578   4.255  10.391
 2102POPC    CD11265   1.467   4.338  10.323
 2102POPC    OE11266   1.404   4.277  10.208
 2102POPC   C1A11267   1.310   4.344  10.143
 2102POPC    OF11268   1.244   4.432  10.201
 2102POPC   C1B11269   1.284   4.281  10.012
 2102POPC   C1C11270   1.162   4.327   9.935
 2102POPC   C1D11271   1.200   4.443   9.844
 2102POPC   C1E11272   1.100   4.449   9.730
 2102POPC   C1F11273   1.133   4.560   9.632
 2102POPC   C1G11274   1.028   4.561   9.522
 2102POPC   C1H11275   1.058   4.668   9.418
 2102POPC   C1I11276   0.952   4.668   9.308
 2102POPC   C1J11277   0.991   4.647   9.183
 2102POPC   C1K11278   1.140   4.622   9.156
 2102POPC   C1L11279   1.169   4.556   9.022
 2102POPC   C1M11280   1.133   4.650   8.906
 2102POPC   C1N11281   1.254   4.680   8.818
 2102POPC   C1O11282   1.233   4.616   8.681
 2102POPC   C1P11283   1.328   4.676   8.578
 2102POPC   C1Q11284   1.303   4.608   8.443
 2102POPC   C1R11285   1.391   4.663   8.331
 2102POPC    CE11286   1.533   4.474  10.293
 2102POPC    OG11287   1.656   4.485  10.219
 2102POPC   C2A11288   1.645   4.501  10.087
 2102POPC    OH11289   1.537   4.520  10.033
 2102POPC   C2B11290   1.776   4.509  10.017
 2102POPC   C2C11291   1.760   4.506   9.864
 2102POPC   C2D11292   1.879   4.445   9.789
 2102POPC   C2E11293   1.843   4.431   9.641
 2102POPC   C2F11294   1.944   4.352   9.557
 2102POPC   C2G11295   1.887   4.327   9.417
 2102POPC   C2H11296   1.992   4.269   9.322
 2102POPC   C2I11297   1.928   4.227   9.190
 2102POPC   C2J11298   2.032   4.192   9.083
 2102POPC   C2K11299   1.963   4.115   8.971
 2102POPC   C2L11300   2.051   4.090   8.848
 2102POPC   C2M11301   2.002   3.961   8.780
 2102POPC   C2N11302   2.033   3.953   8.631
 2102POPC   C2O11303   1.979   3.822   8.573
 2102POPC   C2P11304   1.995   3.816   8.421
 2103POPC   CN111305   3.829   2.453  10.686
 2103POPC   CN211306   3.743   2.272  10.565
 2103POPC   CN311307   3.722   2.271  10.802
 2103POPC   NTM11308   3.811   2.308  10.690
 2103POPC    CA11309   3.944   2.244  10.700
 2103POPC    CB11310   3.959   2.091  10.726
 2103POPC    OA11311   3.886   2.015  10.632
 2103POPC     P11312   3.938   1.866  10.621
 2103POPC    OB11313   3.866   1.808  10.736
 2103POPC    OC11314   4.083   1.878  10.620
 2103POPC    OD11315   3.875   1.834  10.481
 2103POPC    CC11316   3.937   1.897  10.367
 2103POPC    CD11317   3.859   2.019  10.312
 2103POPC    OE11318   3.745   1.984  10.230
 2103POPC   C1A11319   3.639   2.064  10.231
 2103POPC    OF11320   3.625   2.140  10.328
 2103POPC   C1B11321   3.535   2.023  10.135
 2103POPC   C1C11322   3.460   2.142  10.074
 2103POPC   C1D11323   3.526   2.196   9.947
 2103POPC   C1E11324   3.428   2.287   9.872
 2103POPC   C1F11325   3.475   2.314   9.729
 2103POPC   C1G11326   3.362   2.374   9.644
 2103POPC   C1H11327   3.407   2.391   9.499
 2103POPC   C1I11328   3.294   2.452   9.416
 2103POPC   C1J11329   3.283   2.433   9.284
 2103POPC   C1K11330   3.385   2.352   9.203
 2103POPC   C1L11331   3.369   2.372   9.051
 2103POPC   C1M11332   3.386   2.517   9.005
 2103POPC   C1N11333   3.375   2.536   8.853
 2103POPC   C1O11334   3.233   2.519   8.799
 2103POPC   C1P11335   3.222   2.548   8.649
 2103POPC   C1Q11336   3.306   2.453   8.563
 2103POPC   C1R11337   3.286   2.480   8.414
 2103POPC    CE11338   3.958   2.121  10.253
 2103POPC    OG11339   4.028   2.088  10.132
 2103POPC   C2A11340   3.982   2.145  10.021
 2103POPC    OH11341   3.900   2.237  10.027
 2103POPC   C2B11342   4.056   2.103   9.900
 2103POPC   C2C11343   3.965   2.078   9.780
 2103POPC   C2D11344   4.047   2.022   9.663
 2103POPC   C2E11345   3.958   1.991   9.543
 2103POPC   C2F11346   4.039   1.930   9.429
 2103POPC   C2G11347   3.946   1.896   9.312
 2103POPC   C2H11348   4.020   1.834   9.194
 2103POPC   C2I11349   3.918   1.793   9.088
 2103POPC   C2J11350   3.981   1.728   8.965
 2103POPC   C2K11351   3.870   1.671   8.878
 2103POPC   C2L11352   3.920   1.604   8.750
 2103POPC   C2M11353   3.802   1.540   8.677
 2103POPC   C2N11354   3.846   1.474   8.546
 2103POPC   C2O11355   3.728   1.408   8.475
 2103POPC   C2P11356   3.775   1.337   8.348
 2104POPC   CN111357   0.247   5.350  10.784
 2104POPC   CN211358   0.342   5.455  10.598
 2104POPC   CN311359   0.459   5.456  10.805
 2104POPC   NTM11360   0.326   5.466  10.744
 2104POPC    CA11361   0.253   5.590  10.782
 2104POPC    CB11362   0.322   5.728  10.769
 2104POPC    OA11363   0.361   5.752  10.635
 2104POPC     P11364   0.494   5.837  10.623
 2104POPC    OB11365   0.581   5.731  10.680
 2104POPC    OC11366   0.452   5.956  10.698
 2104POPC    OD11367   0.508   5.848  10.466
 2104POPC    CC11368   0.391   5.859  10.384
 2104POPC    CD11369   0.343   5.722  10.330
 2104POPC    OE11370   0.418   5.675  10.216
 2104POPC   C1A11371   0.436   5.544  10.205
 2104POPC    OF11372   0.417   5.470  10.303
 2104POPC   C1B11373   0.507   5.510  10.081
 2104POPC   C1C11374   0.464   5.379  10.016
 2104POPC   C1D11375   0.370   5.404   9.898
 2104POPC   C1E11376   0.369   5.276   9.814
 2104POPC   C1F11377   0.295   5.291   9.682
 2104POPC   C1G11378   0.332   5.171   9.596
 2104POPC   C1H11379   0.275   5.183   9.455
 2104POPC   C1I11380   0.349   5.087   9.363
 2104POPC   C1J11381   0.369   5.117   9.235
 2104POPC   C1K11382   0.315   5.248   9.176
 2104POPC   C1L11383   0.280   5.235   9.027
 2104POPC   C1M11384   0.158   5.145   9.002
 2104POPC   C1N11385   0.116   5.139   8.854
 2104POPC   C1O11386   0.223   5.075   8.765
 2104POPC   C1P11387   0.174   5.043   8.624
 2104POPC   C1Q11388   0.146   5.169   8.541
 2104POPC   C1R11389   0.100   5.130   8.400
 2104POPC    CE11390   0.191   5.727  10.311
 2104POPC    OG11391   0.140   5.806  10.202
 2104POPC   C2A11392   0.125   5.741  10.086
 2104POPC    OH11393   0.120   5.618  10.081
 2104POPC   C2B11394   0.087   5.833   9.976
 2104POPC   C2C11395   0.143   5.790   9.840
 2104POPC   C2D11396   0.109   5.896   9.735
 2104POPC   C2E11397   0.160   5.856   9.597
 2104POPC   C2F11398   0.135   5.968   9.496
 2104POPC   C2G11399   0.183   5.926   9.357
 2104POPC   C2H11400   0.170   6.041   9.257
 2104POPC   C2I11401   0.218   5.994   9.119
 2104POPC   C2J11402   0.218   6.107   9.017
 2104POPC   C2K11403   0.265   6.054   8.882
 2104POPC   C2L11404   0.273   6.164   8.776
 2104POPC   C2M11405   0.320   6.105   8.643
 2104POPC   C2N11406   0.334   6.212   8.536
 2104POPC   C2O11407   0.384   6.150   8.405
 2104POPC   C2P11408   0.401   6.257   8.297
 2105POPC   CN111409   2.375   5.421  10.583
 2105POPC   CN211410   2.153   5.442  10.518
 2105POPC   CN311411   2.198   5.439  10.752
 2105POPC   NTM11412   2.239   5.383  10.622
 2105POPC    CA11413   2.215   5.238  10.606
 2105POPC    CB11414   2.098   5.170  10.681
 2105POPC    OA11415   1.984   5.254  10.677
 2105POPC     P11416   1.847   5.187  10.643
 2105POPC    OB11417   1.752   5.261  10.727
 2105POPC    OC11418   1.872   5.047  10.672
 2105POPC    OD11419   1.832   5.213  10.489
 2105POPC    CC11420   1.908   5.136  10.395
 2105POPC    CD11421   1.975   5.216  10.282
 2105POPC    OE11422   1.886   5.303  10.207
 2105POPC   C1A11423   1.944   5.407  10.148
 2105POPC    OF11424   2.054   5.443  10.193
 2105POPC   C1B11425   1.863   5.476  10.043
 2105POPC   C1C11426   1.906   5.621  10.020
 2105POPC   C1D11427   1.935   5.661   9.874
 2105POPC   C1E11428   1.989   5.805   9.872
 2105POPC   C1F11429   2.068   5.844   9.747
 2105POPC   C1G11430   1.988   5.882   9.622
 2105POPC   C1H11431   2.082   5.870   9.501
 2105POPC   C1I11432   2.083   5.990   9.407
 2105POPC   C1J11433   2.015   6.001   9.293
 2105POPC   C1K11434   1.924   5.895   9.230
 2105POPC   C1L11435   1.896   5.923   9.081
 2105POPC   C1M11436   2.023   5.917   8.995
 2105POPC   C1N11437   2.004   5.933   8.843
 2105POPC   C1O11438   1.902   6.038   8.798
 2105POPC   C1P11439   1.921   6.093   8.655
 2105POPC   C1Q11440   1.958   5.992   8.547
 2105POPC   C1R11441   1.955   6.053   8.407
 2105POPC    CE11442   2.064   5.118  10.202
 2105POPC    OG11443   2.041   5.106  10.061
 2105POPC   C2A11444   2.104   5.189   9.978
 2105POPC    OH11445   2.205   5.248  10.017
 2105POPC   C2B11446   2.068   5.167   9.836
 2105POPC   C2C11447   1.947   5.238   9.774
 2105POPC   C2D11448   1.929   5.175   9.635
 2105POPC   C2E11449   1.818   5.231   9.547
 2105POPC   C2F11450   1.775   5.126   9.444
 2105POPC   C2G11451   1.786   5.171   9.298
 2105POPC   C2H11452   1.704   5.079   9.205
 2105POPC   C2I11453   1.713   5.125   9.059
 2105POPC   C2J11454   1.612   5.055   8.967
 2105POPC   C2K11455   1.647   5.085   8.821
 2105POPC   C2L11456   1.555   5.022   8.715
 2105POPC   C2M11457   1.419   5.090   8.701
 2105POPC   C2N11458   1.382   5.116   8.554
 2105POPC   C2O11459   1.268   5.219   8.545
 2105POPC   C2P11460   1.240   5.265   8.401
 2106POPC   CN111461   3.129   1.509  10.824
 2106POPC   CN211462   3.064   1.627  10.633
 2106POPC   CN311463   3.129   1.750  10.828
 2106POPC   NTM11464   3.059   1.630  10.780
 2106POPC    CA11465   2.922   1.627  10.837
 2106POPC    CB11466   2.829   1.747  10.811
 2106POPC    OA11467   2.780   1.745  10.678
 2106POPC     P11468   2.772   1.887  10.610
 2106POPC    OB11469   2.913   1.924  10.613
 2106POPC    OC11470   2.688   1.950  10.712
 2106POPC    OD11471   2.691   1.827  10.489
 2106POPC    CC11472   2.741   1.725  10.399
 2106POPC    CD11473   2.877   1.739  10.328
 2106POPC    OE11474   2.886   1.861  10.252
 2106POPC   C1A11475   3.007   1.908  10.223
 2106POPC    OF11476   3.097   1.892  10.307
 2106POPC   C1B11477   2.997   2.015  10.121
 2106POPC   C1C11478   3.113   2.035  10.024
 2106POPC   C1D11479   3.145   1.922   9.925
 2106POPC   C1E11480   3.220   1.983   9.806
 2106POPC   C1F11481   3.317   1.889   9.735
 2106POPC   C1G11482   3.384   1.957   9.615
 2106POPC   C1H11483   3.464   1.858   9.529
 2106POPC   C1I11484   3.558   1.930   9.431
 2106POPC   C1J11485   3.533   1.954   9.301
 2106POPC   C1K11486   3.404   1.909   9.230
 2106POPC   C1L11487   3.416   1.905   9.077
 2106POPC   C1M11488   3.507   1.793   9.026
 2106POPC   C1N11489   3.501   1.772   8.874
 2106POPC   C1O11490   3.541   1.895   8.792
 2106POPC   C1P11491   3.577   1.861   8.647
 2106POPC   C1Q11492   3.463   1.799   8.566
 2106POPC   C1R11493   3.510   1.761   8.425
 2106POPC    CE11494   2.907   1.605  10.255
 2106POPC    OG11495   2.810   1.540  10.170
 2106POPC   C2A11496   2.813   1.572  10.040
 2106POPC    OH11497   2.881   1.668  10.003
 2106POPC   C2B11498   2.736   1.483   9.947
 2106POPC   C2C11499   2.779   1.509   9.802
 2106POPC   C2D11500   2.704   1.445   9.684
 2106POPC   C2E11501   2.750   1.520   9.558
 2106POPC   C2F11502   2.688   1.483   9.422
 2106POPC   C2G11503   2.716   1.595   9.321
 2106POPC   C2H11504   2.665   1.570   9.178
 2106POPC   C2I11505   2.657   1.699   9.096
 2106POPC   C2J11506   2.611   1.676   8.951
 2106POPC   C2K11507   2.554   1.805   8.890
 2106POPC   C2L11508   2.508   1.791   8.744
 2106POPC   C2M11509   2.422   1.912   8.703
 2106POPC   C2N11510   2.383   1.909   8.555
 2106POPC   C2O11511   2.291   2.026   8.519
 2106POPC   C2P11512   2.261   2.030   8.369
 2107POPC   CN111513   4.082   4.477  10.636
 2107POPC   CN211514   4.275   4.561  10.530
 2107POPC   CN311515   4.294   4.447  10.738
 2107POPC   NTM11516   4.211   4.541  10.662
 2107POPC    CA11517   4.189   4.665  10.739
 2107POPC    CB11518   4.300   4.772  10.755
 2107POPC    OA11519   4.323   4.840  10.634
 2107POPC     P11520   4.460   4.919  10.633
 2107POPC    OB11521   4.552   4.829  10.704
 2107POPC    OC11522   4.415   5.042  10.700
 2107POPC    OD11523   4.487   4.931  10.480
 2107POPC    CC11524   4.380   4.977  10.395
 2107POPC    CD11525   4.318   4.871  10.301
 2107POPC    OE11526   4.412   4.821  10.204
 2107POPC   C1A11527   4.409   4.691  10.176
 2107POPC    OF11528   4.361   4.614  10.260
 2107POPC   C1B11529   4.508   4.654  10.072
 2107POPC   C1C11530   4.456   4.556   9.967
 2107POPC   C1D11531   4.359   4.621   9.868
 2107POPC   C1E11532   4.335   4.524   9.753
 2107POPC   C1F11533   4.246   4.580   9.642
 2107POPC   C1G11534   4.241   4.475   9.531
 2107POPC   C1H11535   4.178   4.518   9.398
 2107POPC   C1I11536   4.185   4.395   9.307
 2107POPC   C1J11537   4.195   4.392   9.175
 2107POPC   C1K11538   4.204   4.517   9.087
 2107POPC   C1L11539   4.226   4.478   8.940
 2107POPC   C1M11540   4.095   4.455   8.866
 2107POPC   C1N11541   4.108   4.475   8.714
 2107POPC   C1O11542   4.193   4.372   8.639
 2107POPC   C1P11543   4.178   4.385   8.487
 2107POPC   C1Q11544   4.227   4.519   8.433
 2107POPC   C1R11545   4.210   4.528   8.281
 2107POPC    CE11546   4.180   4.919  10.251
 2107POPC    OG11547   4.161   5.034  10.168
 2107POPC   C2A11548   4.145   5.007  10.037
 2107POPC    OH11549   4.152   4.892   9.996
 2107POPC   C2B11550   4.112   5.122   9.950
 2107POPC   C2C11551   4.198   5.112   9.824
 2107POPC   C2D11552   4.176   5.222   9.720
 2107POPC   C2E11553   4.281   5.208   9.610
 2107POPC   C2F11554   4.260   5.304   9.494
 2107POPC   C2G11555   4.359   5.277   9.380
 2107POPC   C2H11556   4.324   5.361   9.257
 2107POPC   C2I11557   4.426   5.335   9.146
 2107POPC   C2J11558   4.405   5.423   9.023
 2107POPC   C2K11559   4.524   5.397   8.931
 2107POPC   C2L11560   4.529   5.476   8.801
 2107POPC   C2M11561   4.660   5.446   8.727
 2107POPC   C2N11562   4.669   5.514   8.590
 2107POPC   C2O11563   4.786   5.458   8.509
 2107POPC   C2P11564   4.793   5.523   8.370
 2108POPC   CN111565   0.486   0.530  10.769
 2108POPC   CN211566   0.580   0.685  10.618
 2108POPC   CN311567   0.687   0.642  10.822
 2108POPC   NTM11568   0.556   0.658  10.760
 2108POPC    CA11569   0.482   0.765  10.832
 2108POPC    CB11570   0.485   0.913  10.788
 2108POPC    OA11571   0.407   0.940  10.672
 2108POPC     P11572   0.434   1.092  10.629
 2108POPC    OB11573   0.579   1.099  10.628
 2108POPC    OC11574   0.349   1.145  10.738
 2108POPC    OD11575   0.361   1.086  10.491
 2108POPC    CC11576   0.383   0.978  10.399
 2108POPC    CD11577   0.502   0.911  10.328
 2108POPC    OE11578   0.584   0.990  10.238
 2108POPC   C1A11579   0.687   0.936  10.173
 2108POPC    OF11580   0.703   0.814  10.177
 2108POPC   C1B11581   0.778   1.031  10.104
 2108POPC   C1C11582   0.792   1.015   9.952
 2108POPC   C1D11583   0.850   0.882   9.904
 2108POPC   C1E11584   0.897   0.888   9.759
 2108POPC   C1F11585   0.949   0.751   9.714
 2108POPC   C1G11586   1.008   0.752   9.573
 2108POPC   C1H11587   0.950   0.638   9.489
 2108POPC   C1I11588   1.039   0.611   9.368
 2108POPC   C1J11589   1.005   0.586   9.242
 2108POPC   C1K11590   0.870   0.583   9.171
 2108POPC   C1L11591   0.884   0.595   9.017
 2108POPC   C1M11592   0.962   0.478   8.956
 2108POPC   C1N11593   0.956   0.464   8.803
 2108POPC   C1O11594   1.051   0.554   8.724
 2108POPC   C1P11595   1.070   0.513   8.578
 2108POPC   C1Q11596   0.955   0.558   8.488
 2108POPC   C1R11597   0.979   0.517   8.342
 2108POPC    CE11598   0.437   0.782  10.272
 2108POPC    OG11599   0.316   0.795  10.195
 2108POPC   C2A11600   0.329   0.754  10.069
 2108POPC    OH11601   0.397   0.653  10.047
 2108POPC   C2B11602   0.224   0.805   9.978
 2108POPC   C2C11603   0.268   0.797   9.832
 2108POPC   C2D11604   0.165   0.858   9.737
 2108POPC   C2E11605   0.216   0.851   9.593
 2108POPC   C2F11606   0.129   0.933   9.497
 2108POPC   C2G11607   0.198   0.945   9.361
 2108POPC   C2H11608   0.113   1.024   9.262
 2108POPC   C2I11609   0.190   1.051   9.133
 2108POPC   C2J11610   0.104   1.125   9.030
 2108POPC   C2K11611   0.188   1.167   8.910
 2108POPC   C2L11612   0.103   1.240   8.806
 2108POPC   C2M11613   0.191   1.293   8.693
 2108POPC   C2N11614   0.107   1.365   8.587
 2108POPC   C2O11615   0.196   1.422   8.477
 2108POPC   C2P11616   0.113   1.492   8.369
 2109POPC   CN111617   4.696   5.241  10.701
 2109POPC   CN211618   4.887   5.303  10.581
 2109POPC   CN311619   4.898   5.289  10.823
 2109POPC   NTM11620   4.815   5.326  10.707
 2109POPC    CA11621   4.767   5.466  10.714
 2109POPC    CB11622   4.861   5.584  10.749
 2109POPC    OA11623   4.984   5.568  10.680
 2109POPC     P11624   5.043   5.704  10.629
 2109POPC    OB11625   5.158   5.647  10.561
 2109POPC    OC11626   5.057   5.774  10.757
 2109POPC    OD11627   4.925   5.746  10.534
 2109POPC    CC11628   4.945   5.727  10.394
 2109POPC    CD11629   4.910   5.589  10.336
 2109POPC    OE11630   4.998   5.555  10.227
 2109POPC   C1A11631   5.007   5.427  10.191
 2109POPC    OF11632   4.976   5.340  10.273
 2109POPC   C1B11633   5.092   5.412  10.071
 2109POPC   C1C11634   5.051   5.299   9.976
 2109POPC   C1D11635   4.941   5.336   9.877
 2109POPC   C1E11636   4.935   5.222   9.776
 2109POPC   C1F11637   4.843   5.246   9.656
 2109POPC   C1G11638   4.868   5.131   9.560
 2109POPC   C1H11639   4.794   5.143   9.427
 2109POPC   C1I11640   4.845   5.031   9.337
 2109POPC   C1J11641   4.861   5.050   9.206
 2109POPC   C1K11642   4.821   5.182   9.141
 2109POPC   C1L11643   4.810   5.174   8.988
 2109POPC   C1M11644   4.712   5.065   8.943
 2109POPC   C1N11645   4.656   5.078   8.801
 2109POPC   C1O11646   4.760   5.085   8.689
 2109POPC   C1P11647   4.700   5.070   8.548
 2109POPC   C1Q11648   4.574   5.152   8.522
 2109POPC   C1R11649   4.540   5.157   8.373
 2109POPC    CE11650   4.761   5.589  10.300
 2109POPC    OG11651   4.724   5.691  10.208
 2109POPC   C2A11652   4.729   5.657  10.079
 2109POPC    OH11653   4.722   5.540  10.042
 2109POPC   C2B11654   4.725   5.777   9.994
 2109POPC   C2C11655   4.742   5.751   9.845
 2109POPC   C2D11656   4.713   5.880   9.770
 2109POPC   C2E11657   4.755   5.865   9.624
 2109POPC   C2F11658   4.708   5.984   9.542
 2109POPC   C2G11659   4.741   5.963   9.394
 2109POPC   C2H11660   4.673   6.071   9.309
 2109POPC   C2I11661   4.679   6.040   9.160
 2109POPC   C2J11662   4.614   6.151   9.077
 2109POPC   C2K11663   4.614   6.114   8.929
 2109POPC   C2L11664   4.608   6.241   8.844
 2109POPC   C2M11665   4.621   6.210   8.695
 2109POPC   C2N11666   4.681   6.330   8.622
 2109POPC   C2O11667   4.692   6.305   8.471
 2109POPC   C2P11668   4.776   6.414   8.405
 2110POPC   CN111669   4.001   5.253  10.595
 2110POPC   CN211670   4.220   5.284  10.536
 2110POPC   CN311671   4.173   5.250  10.767
 2110POPC   NTM11672   4.124   5.313  10.644
 2110POPC    CA11673   4.098   5.457  10.671
 2110POPC    CB11674   4.217   5.546  10.709
 2110POPC    OA11675   4.302   5.551  10.598
 2110POPC     P11676   4.441   5.617  10.622
 2110POPC    OB11677   4.488   5.528  10.730
 2110POPC    OC11678   4.405   5.754  10.651
 2110POPC    OD11679   4.504   5.591  10.482
 2110POPC    CC11680   4.423   5.628  10.369
 2110POPC    CD11681   4.373   5.503  10.294
 2110POPC    OE11682   4.478   5.435  10.222
 2110POPC   C1A11683   4.470   5.303  10.209
 2110POPC    OF11684   4.392   5.244  10.284
 2110POPC   C1B11685   4.591   5.246  10.143
 2110POPC   C1C11686   4.578   5.107  10.080
 2110POPC   C1D11687   4.555   5.113   9.929
 2110POPC   C1E11688   4.563   4.975   9.862
 2110POPC   C1F11689   4.546   4.991   9.711
 2110POPC   C1G11690   4.533   4.859   9.634
 2110POPC   C1H11691   4.507   4.887   9.485
 2110POPC   C1I11692   4.451   4.762   9.417
 2110POPC   C1J11693   4.486   4.718   9.297
 2110POPC   C1K11694   4.592   4.784   9.209
 2110POPC   C1L11695   4.587   4.730   9.065
 2110POPC   C1M11696   4.470   4.790   8.988
 2110POPC   C1N11697   4.442   4.731   8.849
 2110POPC   C1O11698   4.558   4.737   8.750
 2110POPC   C1P11699   4.505   4.713   8.609
 2110POPC   C1Q11700   4.618   4.718   8.507
 2110POPC   C1R11701   4.564   4.708   8.364
 2110POPC    CE11702   4.241   5.536  10.221
 2110POPC    OG11703   4.248   5.584  10.086
 2110POPC   C2A11704   4.267   5.492   9.992
 2110POPC    OH11705   4.255   5.373  10.017
 2110POPC   C2B11706   4.272   5.546   9.856
 2110POPC   C2C11707   4.410   5.545   9.793
 2110POPC   C2D11708   4.398   5.611   9.657
 2110POPC   C2E11709   4.520   5.576   9.574
 2110POPC   C2F11710   4.509   5.636   9.434
 2110POPC   C2G11711   4.632   5.595   9.354
 2110POPC   C2H11712   4.628   5.663   9.217
 2110POPC   C2I11713   4.756   5.635   9.139
 2110POPC   C2J11714   4.759   5.719   9.012
 2110POPC   C2K11715   4.883   5.681   8.932
 2110POPC   C2L11716   4.903   5.762   8.804
 2110POPC   C2M11717   4.991   5.675   8.715
 2110POPC   C2N11718   5.047   5.736   8.587
 2110POPC   C2O11719   5.189   5.789   8.611
 2110POPC   C2P11720   5.261   5.812   8.478
 2111POPC   CN111721   4.815   0.404  10.706
 2111POPC   CN211722   4.689   0.535  10.554
 2111POPC   CN311723   4.763   0.627  10.758
 2111POPC   NTM11724   4.710   0.506  10.696
 2111POPC    CA11725   4.588   0.461  10.769
 2111POPC    CB11726   4.447   0.519  10.745
 2111POPC    OA11727   4.391   0.483  10.619
 2111POPC     P11728   4.240   0.534  10.611
 2111POPC    OB11729   4.237   0.672  10.654
 2111POPC    OC11730   4.187   0.433  10.704
 2111POPC    OD11731   4.206   0.510  10.461
 2111POPC    CC11732   4.304   0.489  10.358
 2111POPC    CD11733   4.413   0.562  10.280
 2111POPC    OE11734   4.364   0.670  10.198
 2111POPC   C1A11735   4.450   0.737  10.121
 2111POPC    OF11736   4.569   0.723  10.146
 2111POPC   C1B11737   4.390   0.842  10.035
 2111POPC   C1C11738   4.490   0.921   9.949
 2111POPC   C1D11739   4.495   0.866   9.806
 2111POPC   C1E11740   4.544   0.962   9.696
 2111POPC   C1F11741   4.692   0.996   9.704
 2111POPC   C1G11742   4.746   1.067   9.580
 2111POPC   C1H11743   4.799   0.973   9.471
 2111POPC   C1I11744   4.875   1.054   9.366
 2111POPC   C1J11745   4.834   1.061   9.239
 2111POPC   C1K11746   4.711   0.984   9.193
 2111POPC   C1L11747   4.689   0.990   9.041
 2111POPC   C1M11748   4.800   0.919   8.964
 2111POPC   C1N11749   4.779   0.909   8.812
 2111POPC   C1O11750   4.753   1.044   8.745
 2111POPC   C1P11751   4.803   1.051   8.601
 2111POPC   C1Q11752   4.738   0.951   8.505
 2111POPC   C1R11753   4.792   0.970   8.363
 2111POPC    CE11754   4.497   0.450  10.211
 2111POPC    OG11755   4.434   0.356  10.123
 2111POPC   C2A11756   4.491   0.343  10.002
 2111POPC    OH11757   4.605   0.388   9.984
 2111POPC   C2B11758   4.415   0.261   9.904
 2111POPC   C2C11759   4.446   0.298   9.758
 2111POPC   C2D11760   4.343   0.239   9.661
 2111POPC   C2E11761   4.359   0.293   9.519
 2111POPC   C2F11762   4.239   0.259   9.430
 2111POPC   C2G11763   4.238   0.342   9.301
 2111POPC   C2H11764   4.120   0.308   9.210
 2111POPC   C2I11765   4.111   0.402   9.090
 2111POPC   C2J11766   4.003   0.360   8.990
 2111POPC   C2K11767   3.993   0.459   8.874
 2111POPC   C2L11768   3.899   0.411   8.763
 2111POPC   C2M11769   3.895   0.514   8.650
 2111POPC   C2N11770   3.832   0.459   8.522
 2111POPC   C2O11771   3.844   0.563   8.411
 2111POPC   C2P11772   3.805   0.509   8.273
 2112POPC   CN111773   0.621   4.576  10.841
 2112POPC   CN211774   0.708   4.624  10.622
 2112POPC   CN311775   0.848   4.612  10.813
 2112POPC   NTM11776   0.717   4.656  10.766
 2112POPC    CA11777   0.690   4.799  10.793
 2112POPC    CB11778   0.802   4.902  10.766
 2112POPC    OA11779   0.843   4.900  10.631
 2112POPC     P11780   0.990   4.952  10.612
 2112POPC    OB11781   1.069   4.844  10.673
 2112POPC    OC11782   0.989   5.077  10.687
 2112POPC    OD11783   1.015   4.977  10.460
 2112POPC    CC11784   0.904   4.995  10.371
 2112POPC    CD11785   0.832   4.866  10.326
 2112POPC    OE11786   0.892   4.799  10.214
 2112POPC   C1A11787   0.871   4.668  10.204
 2112POPC    OF11788   0.811   4.609  10.295
 2112POPC   C1B11789   0.933   4.608  10.084
 2112POPC   C1C11790   0.832   4.530  10.000
 2112POPC   C1D11791   0.760   4.611   9.892
 2112POPC   C1E11792   0.669   4.514   9.817
 2112POPC   C1F11793   0.614   4.562   9.682
 2112POPC   C1G11794   0.547   4.441   9.616
 2112POPC   C1H11795   0.511   4.462   9.469
 2112POPC   C1I11796   0.478   4.328   9.403
 2112POPC   C1J11797   0.490   4.314   9.272
 2112POPC   C1K11798   0.528   4.436   9.188
 2112POPC   C1L11799   0.519   4.415   9.036
 2112POPC   C1M11800   0.381   4.372   8.986
 2112POPC   C1N11801   0.359   4.394   8.837
 2112POPC   C1O11802   0.465   4.332   8.746
 2112POPC   C1P11803   0.425   4.340   8.598
 2112POPC   C1Q11804   0.407   4.484   8.547
 2112POPC   C1R11805   0.352   4.484   8.405
 2112POPC    CE11806   0.683   4.898  10.310
 2112POPC    OG11807   0.654   5.000  10.215
 2112POPC   C2A11808   0.622   4.954  10.094
 2112POPC    OH11809   0.554   4.852  10.083
 2112POPC   C2B11810   0.643   5.057   9.990
 2112POPC   C2C11811   0.685   4.999   9.855
 2112POPC   C2D11812   0.721   5.116   9.763
 2112POPC   C2E11813   0.726   5.074   9.617
 2112POPC   C2F11814   0.747   5.197   9.530
 2112POPC   C2G11815   0.727   5.163   9.383
 2112POPC   C2H11816   0.757   5.284   9.295
 2112POPC   C2I11817   0.739   5.249   9.147
 2112POPC   C2J11818   0.796   5.360   9.059
 2112POPC   C2K11819   0.780   5.326   8.911
 2112POPC   C2L11820   0.857   5.425   8.825
 2112POPC   C2M11821   0.845   5.388   8.677
 2112POPC   C2N11822   0.923   5.486   8.590
 2112POPC   C2O11823   0.902   5.455   8.442
 2112POPC   C2P11824   0.977   5.555   8.354
 2113POPC   CN111825   2.502   5.849  10.680
 2113POPC   CN211826   2.314   5.957  10.584
 2113POPC   CN311827   2.390   6.026  10.797
 2113POPC   NTM11828   2.371   5.908  10.711
 2113POPC    CA11829   2.291   5.809  10.786
 2113POPC    CB11830   2.141   5.786  10.757
 2113POPC    OA11831   2.118   5.725  10.630
 2113POPC     P11832   1.965   5.749  10.590
 2113POPC    OB11833   1.968   5.895  10.592
 2113POPC    OC11834   1.906   5.677  10.704
 2113POPC    OD11835   1.954   5.680  10.451
 2113POPC    CC11836   2.039   5.694  10.336
 2113POPC    CD11837   2.145   5.800  10.301
 2113POPC    OE11838   2.088   5.914  10.234
 2113POPC   C1A11839   2.163   6.023  10.224
 2113POPC    OF11840   2.250   6.043  10.310
 2113POPC   C1B11841   2.112   6.119  10.124
 2113POPC   C1C11842   2.224   6.187  10.044
 2113POPC   C1D11843   2.281   6.103   9.929
 2113POPC   C1E11844   2.373   6.194   9.847
 2113POPC   C1F11845   2.409   6.144   9.707
 2113POPC   C1G11846   2.470   6.263   9.634
 2113POPC   C1H11847   2.501   6.244   9.485
 2113POPC   C1I11848   2.536   6.383   9.429
 2113POPC   C1J11849   2.546   6.413   9.300
 2113POPC   C1K11850   2.534   6.309   9.189
 2113POPC   C1L11851   2.587   6.366   9.056
 2113POPC   C1M11852   2.609   6.252   8.957
 2113POPC   C1N11853   2.668   6.294   8.822
 2113POPC   C1O11854   2.579   6.383   8.735
 2113POPC   C1P11855   2.628   6.395   8.590
 2113POPC   C1Q11856   2.640   6.259   8.520
 2113POPC   C1R11857   2.667   6.274   8.370
 2113POPC    CE11858   2.265   5.735  10.227
 2113POPC    OG11859   2.248   5.632  10.129
 2113POPC   C2A11860   2.308   5.647  10.011
 2113POPC    OH11861   2.379   5.746   9.991
 2113POPC   C2B11862   2.287   5.534   9.916
 2113POPC   C2C11863   2.301   5.568   9.766
 2113POPC   C2D11864   2.199   5.491   9.679
 2113POPC   C2E11865   2.199   5.533   9.532
 2113POPC   C2F11866   2.068   5.502   9.457
 2113POPC   C2G11867   2.077   5.543   9.309
 2113POPC   C2H11868   1.956   5.510   9.221
 2113POPC   C2I11869   1.990   5.541   9.075
 2113POPC   C2J11870   1.887   5.498   8.970
 2113POPC   C2K11871   1.810   5.616   8.909
 2113POPC   C2L11872   1.830   5.634   8.758
 2113POPC   C2M11873   1.728   5.735   8.702
 2113POPC   C2N11874   1.726   5.742   8.549
 2113POPC   C2O11875   1.614   5.835   8.499
 2113POPC   C2P11876   1.600   5.828   8.346
 2114POPC   CN111877   1.803   3.076  10.713
 2114POPC   CN211878   1.916   3.208  10.556
 2114POPC   CN311879   1.998   3.207  10.778
 2114POPC   NTM11880   1.875   3.203  10.697
 2114POPC    CA11881   1.781   3.312  10.735
 2114POPC    CB11882   1.834   3.456  10.752
 2114POPC    OA11883   1.902   3.492  10.635
 2114POPC     P11884   1.987   3.625  10.641
 2114POPC    OB11885   2.113   3.561  10.682
 2114POPC    OC11886   1.915   3.705  10.741
 2114POPC    OD11887   1.977   3.666  10.488
 2114POPC    CC11888   1.862   3.636  10.408
 2114POPC    CD11889   1.875   3.506  10.324
 2114POPC    OE11890   1.955   3.525  10.205
 2114POPC   C1A11891   2.019   3.422  10.152
 2114POPC    OF11892   2.026   3.315  10.213
 2114POPC   C1B11893   2.088   3.464  10.028
 2114POPC   C1C11894   2.126   3.353   9.930
 2114POPC   C1D11895   2.013   3.284   9.854
 2114POPC   C1E11896   2.077   3.182   9.761
 2114POPC   C1F11897   1.998   3.153   9.633
 2114POPC   C1G11898   2.095   3.085   9.536
 2114POPC   C1H11899   2.040   3.072   9.394
 2114POPC   C1I11900   2.151   3.015   9.304
 2114POPC   C1J11901   2.154   3.037   9.173
 2114POPC   C1K11902   2.043   3.116   9.102
 2114POPC   C1L11903   2.043   3.101   8.949
 2114POPC   C1M11904   2.029   2.956   8.903
 2114POPC   C1N11905   1.963   2.939   8.766
 2114POPC   C1O11906   2.055   2.967   8.647
 2114POPC   C1P11907   1.987   2.933   8.514
 2114POPC   C1Q11908   1.874   3.030   8.479
 2114POPC   C1R11909   1.808   2.991   8.346
 2114POPC    CE11910   1.734   3.449  10.296
 2114POPC    OG11911   1.668   3.509  10.184
 2114POPC   C2A11912   1.684   3.447  10.068
 2114POPC    OH11913   1.693   3.325  10.061
 2114POPC   C2B11914   1.673   3.543   9.956
 2114POPC   C2C11915   1.725   3.501   9.819
 2114POPC   C2D11916   1.733   3.628   9.733
 2114POPC   C2E11917   1.739   3.599   9.583
 2114POPC   C2F11918   1.714   3.729   9.505
 2114POPC   C2G11919   1.694   3.700   9.356
 2114POPC   C2H11920   1.664   3.827   9.277
 2114POPC   C2I11921   1.647   3.793   9.128
 2114POPC   C2J11922   1.635   3.920   9.044
 2114POPC   C2K11923   1.626   3.888   8.894
 2114POPC   C2L11924   1.640   4.016   8.813
 2114POPC   C2M11925   1.650   3.988   8.663
 2114POPC   C2N11926   1.698   4.111   8.584
 2114POPC   C2O11927   1.714   4.077   8.436
 2114POPC   C2P11928   1.764   4.197   8.356
 2115POPC   CN111929   2.049   1.361  10.884
 2115POPC   CN211930   2.057   1.250  10.672
 2115POPC   CN311931   2.027   1.127  10.874
 2115POPC   NTM11932   2.097   1.241  10.815
 2115POPC    CA11933   2.245   1.229  10.828
 2115POPC    CB11934   2.316   1.096  10.793
 2115POPC    OA11935   2.281   1.051  10.664
 2115POPC     P11936   2.273   0.895  10.659
 2115POPC    OB11937   2.180   0.861  10.770
 2115POPC    OC11938   2.410   0.847  10.674
 2115POPC    OD11939   2.207   0.865  10.521
 2115POPC    CC11940   2.256   0.935  10.406
 2115POPC    CD11941   2.164   1.047  10.354
 2115POPC    OE11942   2.062   1.005  10.260
 2115POPC   C1A11943   1.946   1.072  10.256
 2115POPC    OF11944   1.917   1.141  10.354
 2115POPC   C1B11945   1.854   1.011  10.155
 2115POPC   C1C11946   1.778   1.087  10.046
 2115POPC   C1D11947   1.768   1.000   9.919
 2115POPC   C1E11948   1.673   1.039   9.804
 2115POPC   C1F11949   1.693   1.178   9.740
 2115POPC   C1G11950   1.647   1.192   9.594
 2115POPC   C1H11951   1.692   1.322   9.526
 2115POPC   C1I11952   1.591   1.372   9.422
 2115POPC   C1J11953   1.598   1.362   9.289
 2115POPC   C1K11954   1.715   1.298   9.216
 2115POPC   C1L11955   1.693   1.263   9.067
 2115POPC   C1M11956   1.661   1.382   8.977
 2115POPC   C1N11957   1.715   1.371   8.834
 2115POPC   C1O11958   1.640   1.272   8.744
 2115POPC   C1P11959   1.647   1.312   8.596
 2115POPC   C1Q11960   1.788   1.322   8.538
 2115POPC   C1R11961   1.784   1.359   8.390
 2115POPC    CE11962   2.254   1.163  10.306
 2115POPC    OG11963   2.363   1.134  10.217
 2115POPC   C2A11964   2.339   1.155  10.087
 2115POPC    OH11965   2.231   1.201  10.050
 2115POPC   C2B11966   2.453   1.125   9.997
 2115POPC   C2C11967   2.400   1.070   9.864
 2115POPC   C2D11968   2.507   1.046   9.757
 2115POPC   C2E11969   2.436   0.997   9.631
 2115POPC   C2F11970   2.530   0.962   9.515
 2115POPC   C2G11971   2.445   0.923   9.394
 2115POPC   C2H11972   2.529   0.867   9.279
 2115POPC   C2I11973   2.440   0.841   9.157
 2115POPC   C2J11974   2.514   0.759   9.052
 2115POPC   C2K11975   2.428   0.742   8.926
 2115POPC   C2L11976   2.489   0.638   8.832
 2115POPC   C2M11977   2.411   0.632   8.701
 2115POPC   C2N11978   2.461   0.518   8.613
 2115POPC   C2O11979   2.394   0.521   8.475
 2115POPC   C2P11980   2.431   0.398   8.392
 2116POPC   CN111981   3.622   3.225  10.679
 2116POPC   CN211982   3.512   3.417  10.594
 2116POPC   CN311983   3.598   3.421  10.813
 2116POPC   NTM11984   3.532   3.335  10.715
 2116POPC    CA11985   3.409   3.278  10.776
 2116POPC    CB11986   3.268   3.335  10.749
 2116POPC    OA11987   3.222   3.309  10.617
 2116POPC     P11988   3.109   3.414  10.580
 2116POPC    OB11989   3.180   3.539  10.606
 2116POPC    OC11990   3.006   3.371  10.676
 2116POPC    OD11991   3.076   3.388  10.428
 2116POPC    CC11992   3.155   3.303  10.344
 2116POPC    CD11993   3.304   3.331  10.311
 2116POPC    OE11994   3.332   3.432  10.212
 2116POPC   C1A11995   3.453   3.489  10.209
 2116POPC    OF11996   3.540   3.454  10.290
 2116POPC   C1B11997   3.460   3.601  10.112
 2116POPC   C1C11998   3.592   3.625  10.040
 2116POPC   C1D11999   3.600   3.545   9.910
 2116POPC   C1E12000   3.711   3.603   9.822
 2116POPC   C1F12001   3.723   3.528   9.689
 2116POPC   C1G12002   3.826   3.597   9.601
 2116POPC   C1H12003   3.842   3.524   9.467
 2116POPC   C1I12004   3.936   3.603   9.376
 2116POPC   C1J12005   3.920   3.602   9.245
 2116POPC   C1K12006   3.808   3.519   9.182
 2116POPC   C1L12007   3.840   3.475   9.038
 2116POPC   C1M12008   3.957   3.377   9.030
 2116POPC   C1N12009   3.981   3.325   8.888
 2116POPC   C1O12010   4.032   3.433   8.793
 2116POPC   C1P12011   4.057   3.379   8.651
 2116POPC   C1Q12012   3.928   3.332   8.583
 2116POPC   C1R12013   3.954   3.289   8.439
 2116POPC    CE12014   3.361   3.192  10.277
 2116POPC    OG12015   3.292   3.119  10.175
 2116POPC   C2A12016   3.338   3.137  10.052
 2116POPC    OH12017   3.458   3.161  10.035
 2116POPC   C2B12018   3.245   3.087   9.948
 2116POPC   C2C12019   3.253   3.171   9.820
 2116POPC   C2D12020   3.163   3.113   9.712
 2116POPC   C2E12021   3.180   3.192   9.583
 2116POPC   C2F12022   3.096   3.136   9.469
 2116POPC   C2G12023   3.118   3.222   9.345
 2116POPC   C2H12024   3.039   3.175   9.223
 2116POPC   C2I12025   3.061   3.274   9.109
 2116POPC   C2J12026   2.986   3.236   8.983
 2116POPC   C2K12027   3.012   3.340   8.874
 2116POPC   C2L12028   2.943   3.302   8.743
 2116POPC   C2M12029   2.969   3.405   8.634
 2116POPC   C2N12030   2.890   3.366   8.508
 2116POPC   C2O12031   2.898   3.472   8.399
 2116POPC   C2P12032   2.791   3.448   8.293
 2117POPC   CN112033   3.766   6.331  10.873
 2117POPC   CN212034   3.792   6.205  10.672
 2117POPC   CN312035   3.694   6.108  10.870
 2117POPC   NTM12036   3.797   6.199  10.820
 2117POPC    CA12037   3.931   6.164  10.872
 2117POPC    CB12038   3.990   6.025  10.842
 2117POPC    OA12039   4.020   6.004  10.705
 2117POPC     P12040   4.065   5.853  10.687
 2117POPC    OB12041   3.947   5.784  10.738
 2117POPC    OC12042   4.178   5.850  10.779
 2117POPC    OD12043   4.075   5.835  10.532
 2117POPC    CC12044   4.147   5.927  10.449
 2117POPC    CD12045   4.059   6.026  10.368
 2117POPC    OE12046   3.970   5.962  10.275
 2117POPC   C1A12047   3.857   6.028  10.249
 2117POPC    OF12048   3.805   6.089  10.343
 2117POPC   C1B12049   3.789   5.973  10.130
 2117POPC   C1C12050   3.820   6.035   9.993
 2117POPC   C1D12051   3.732   6.154   9.954
 2117POPC   C1E12052   3.705   6.160   9.803
 2117POPC   C1F12053   3.589   6.255   9.772
 2117POPC   C1G12054   3.497   6.218   9.654
 2117POPC   C1H12055   3.552   6.235   9.512
 2117POPC   C1I12056   3.435   6.256   9.415
 2117POPC   C1J12057   3.440   6.238   9.283
 2117POPC   C1K12058   3.568   6.191   9.214
 2117POPC   C1L12059   3.561   6.167   9.063
 2117POPC   C1M12060   3.559   6.299   8.985
 2117POPC   C1N12061   3.592   6.292   8.836
 2117POPC   C1O12062   3.468   6.281   8.748
 2117POPC   C1P12063   3.483   6.353   8.614
 2117POPC   C1Q12064   3.583   6.289   8.519
 2117POPC   C1R12065   3.591   6.366   8.387
 2117POPC    CE12066   4.136   6.148  10.311
 2117POPC    OG12067   4.235   6.175  10.208
 2117POPC   C2A12068   4.191   6.209  10.086
 2117POPC    OH12069   4.071   6.198  10.064
 2117POPC   C2B12070   4.295   6.242   9.983
 2117POPC   C2C12071   4.245   6.244   9.837
 2117POPC   C2D12072   4.351   6.202   9.734
 2117POPC   C2E12073   4.299   6.200   9.589
 2117POPC   C2F12074   4.351   6.080   9.508
 2117POPC   C2G12075   4.301   6.076   9.363
 2117POPC   C2H12076   4.335   5.945   9.288
 2117POPC   C2I12077   4.298   5.955   9.139
 2117POPC   C2J12078   4.346   5.842   9.047
 2117POPC   C2K12079   4.273   5.848   8.912
 2117POPC   C2L12080   4.359   5.799   8.795
 2117POPC   C2M12081   4.274   5.747   8.679
 2117POPC   C2N12082   4.360   5.708   8.559
 2117POPC   C2O12083   4.291   5.606   8.468
 2117POPC   C2P12084   4.381   5.563   8.352
 2118POPC   CN112085   0.318   2.817  10.739
 2118POPC   CN212086   0.482   2.904  10.596
 2118POPC   CN312087   0.549   2.825  10.807
 2118POPC   NTM12088   0.441   2.896  10.737
 2118POPC    CA12089   0.414   3.025  10.804
 2118POPC    CB12090   0.510   3.145  10.793
 2118POPC    OA12091   0.505   3.212  10.668
 2118POPC     P12092   0.653   3.257  10.630
 2118POPC    OB12093   0.724   3.128  10.635
 2118POPC    OC12094   0.670   3.348  10.744
 2118POPC    OD12095   0.630   3.328  10.494
 2118POPC    CC12096   0.540   3.286  10.390
 2118POPC    CD12097   0.502   3.147  10.340
 2118POPC    OE12098   0.597   3.087  10.251
 2118POPC   C1A12099   0.585   2.958  10.221
 2118POPC    OF12100   0.528   2.886  10.305
 2118POPC   C1B12101   0.679   2.919  10.114
 2118POPC   C1C12102   0.624   2.816  10.015
 2118POPC   C1D12103   0.523   2.864   9.911
 2118POPC   C1E12104   0.517   2.753   9.806
 2118POPC   C1F12105   0.424   2.771   9.686
 2118POPC   C1G12106   0.448   2.651   9.594
 2118POPC   C1H12107   0.366   2.653   9.465
 2118POPC   C1I12108   0.398   2.529   9.380
 2118POPC   C1J12109   0.401   2.538   9.247
 2118POPC   C1K12110   0.374   2.675   9.185
 2118POPC   C1L12111   0.354   2.677   9.033
 2118POPC   C1M12112   0.222   2.614   8.990
 2118POPC   C1N12113   0.181   2.648   8.846
 2118POPC   C1O12114   0.285   2.607   8.741
 2118POPC   C1P12115   0.226   2.599   8.600
 2118POPC   C1Q12116   0.165   2.730   8.548
 2118POPC   C1R12117   0.114   2.712   8.405
 2118POPC    CE12118   0.356   3.157  10.290
 2118POPC    OG12119   0.316   3.274  10.216
 2118POPC   C2A12120   0.312   3.254  10.083
 2118POPC    OH12121   0.292   3.140  10.042
 2118POPC   C2B12122   0.298   3.377  10.002
 2118POPC   C2C12123   0.335   3.351   9.856
 2118POPC   C2D12124   0.295   3.464   9.759
 2118POPC   C2E12125   0.314   3.412   9.617
 2118POPC   C2F12126   0.263   3.503   9.506
 2118POPC   C2G12127   0.285   3.429   9.374
 2118POPC   C2H12128   0.259   3.516   9.251
 2118POPC   C2I12129   0.321   3.451   9.127
 2118POPC   C2J12130   0.341   3.559   9.020
 2118POPC   C2K12131   0.406   3.508   8.892
 2118POPC   C2L12132   0.460   3.629   8.815
 2118POPC   C2M12133   0.499   3.599   8.671
 2118POPC   C2N12134   0.550   3.727   8.605
 2118POPC   C2O12135   0.576   3.706   8.455
 2118POPC   C2P12136   0.622   3.836   8.388
 2119POPC   CN112137   4.323   6.161  10.900
 2119POPC   CN212138   4.405   6.058  10.704
 2119POPC   CN312139   4.463   5.970  10.914
 2119POPC   NTM12140   4.440   6.095  10.841
 2119POPC    CA12141   4.558   6.184  10.848
 2119POPC    CB12142   4.692   6.140  10.786
 2119POPC    OA12143   4.680   6.110  10.648
 2119POPC     P12144   4.759   5.977  10.611
 2119POPC    OB12145   4.727   5.890  10.727
 2119POPC    OC12146   4.885   6.049  10.598
 2119POPC    OD12147   4.675   5.956  10.482
 2119POPC    CC12148   4.719   6.024  10.365
 2119POPC    CD12149   4.600   6.091  10.296
 2119POPC    OE12150   4.553   6.028  10.175
 2119POPC   C1A12151   4.446   5.949  10.185
 2119POPC    OF12152   4.392   5.934  10.295
 2119POPC   C1B12153   4.403   5.893  10.055
 2119POPC   C1C12154   4.252   5.883  10.033
 2119POPC   C1D12155   4.229   5.886   9.882
 2119POPC   C1E12156   4.085   5.869   9.835
 2119POPC   C1F12157   4.082   5.921   9.692
 2119POPC   C1G12158   3.947   5.921   9.622
 2119POPC   C1H12159   3.958   6.009   9.498
 2119POPC   C1I12160   3.834   5.997   9.409
 2119POPC   C1J12161   3.840   6.015   9.278
 2119POPC   C1K12162   3.970   6.054   9.208
 2119POPC   C1L12163   3.965   6.039   9.056
 2119POPC   C1M12164   3.932   6.172   8.988
 2119POPC   C1N12165   3.963   6.175   8.838
 2119POPC   C1O12166   3.902   6.059   8.758
 2119POPC   C1P12167   3.882   6.095   8.610
 2119POPC   C1Q12168   4.009   6.141   8.539
 2119POPC   C1R12169   3.976   6.192   8.399
 2119POPC    CE12170   4.629   6.241  10.286
 2119POPC    OG12171   4.724   6.284  10.188
 2119POPC   C2A12172   4.669   6.332  10.076
 2119POPC    OH12173   4.560   6.389  10.086
 2119POPC   C2B12174   4.766   6.346   9.965
 2119POPC   C2C12175   4.706   6.338   9.825
 2119POPC   C2D12176   4.822   6.338   9.724
 2119POPC   C2E12177   4.782   6.356   9.578
 2119POPC   C2F12178   4.907   6.338   9.491
 2119POPC   C2G12179   4.881   6.356   9.341
 2119POPC   C2H12180   4.997   6.299   9.257
 2119POPC   C2I12181   4.954   6.284   9.111
 2119POPC   C2J12182   5.057   6.215   9.021
 2119POPC   C2K12183   4.987   6.165   8.894
 2119POPC   C2L12184   5.076   6.153   8.770
 2119POPC   C2M12185   4.988   6.110   8.653
 2119POPC   C2N12186   5.054   6.117   8.516
 2119POPC   C2O12187   4.962   6.054   8.411
 2119POPC   C2P12188   5.030   6.042   8.274
 2120POPC   CN112189   6.192   0.911  10.639
 2120POPC   CN212190   6.369   1.019  10.527
 2120POPC   CN312191   6.399   0.949  10.753
 2120POPC   NTM12192   6.302   1.005  10.658
 2120POPC    CA12193   6.248   1.134  10.707
 2120POPC    CB12194   6.334   1.262  10.715
 2120POPC    OA12195   6.371   1.314  10.588
 2120POPC     P12196   6.436   1.456  10.606
 2120POPC    OB12197   6.521   1.449  10.725
 2120POPC    OC12198   6.319   1.543  10.621
 2120POPC    OD12199   6.512   1.482  10.471
 2120POPC    CC12200   6.443   1.453  10.349
 2120POPC    CD12201   6.484   1.321  10.280
 2120POPC    OE12202   6.600   1.336  10.194
 2120POPC   C1A12203   6.661   1.226  10.149
 2120POPC    OF12204   6.602   1.118  10.146
 2120POPC   C1B12205   6.794   1.254  10.091
 2120POPC   C1C12206   6.794   1.275   9.940
 2120POPC   C1D12207   6.770   1.147   9.860
 2120POPC   C1E12208   6.840   1.166   9.726
 2120POPC   C1F12209   6.835   1.039   9.641
 2120POPC   C1G12210   6.945   1.046   9.536
 2120POPC   C1H12211   6.928   0.937   9.430
 2120POPC   C1I12212   7.062   0.904   9.366
 2120POPC   C1J12213   7.112   0.964   9.258
 2120POPC   C1K12214   7.038   1.077   9.185
 2120POPC   C1L12215   7.059   1.071   9.033
 2120POPC   C1M12216   6.991   0.947   8.974
 2120POPC   C1N12217   6.986   0.947   8.821
 2120POPC   C1O12218   7.121   0.927   8.754
 2120POPC   C1P12219   7.105   0.880   8.609
 2120POPC   C1Q12220   7.039   0.984   8.518
 2120POPC   C1R12221   7.025   0.928   8.376
 2120POPC    CE12222   6.357   1.263  10.213
 2120POPC    OG12223   6.307   1.329  10.096
 2120POPC   C2A12224   6.334   1.267   9.981
 2120POPC    OH12225   6.338   1.144   9.978
 2120POPC   C2B12226   6.303   1.352   9.864
 2120POPC   C2C12227   6.405   1.341   9.752
 2120POPC   C2D12228   6.359   1.425   9.633
 2120POPC   C2E12229   6.460   1.424   9.518
 2120POPC   C2F12230   6.407   1.499   9.396
 2120POPC   C2G12231   6.514   1.501   9.287
 2120POPC   C2H12232   6.470   1.571   9.159
 2120POPC   C2I12233   6.593   1.578   9.067
 2120POPC   C2J12234   6.570   1.650   8.934
 2120POPC   C2K12235   6.707   1.667   8.869
 2120POPC   C2L12236   6.705   1.736   8.733
 2120POPC   C2M12237   6.849   1.772   8.694
 2120POPC   C2N12238   6.858   1.837   8.556
 2120POPC   C2O12239   6.994   1.904   8.538
 2120POPC   C2P12240   7.002   1.978   8.405
 2121POPC   CN112241   2.594   2.732  10.596
 2121POPC   CN212242   2.415   2.861  10.535
 2121POPC   CN312243   2.470   2.859  10.762
 2121POPC   NTM12244   2.462   2.774  10.643
 2121POPC    CA12245   2.377   2.653  10.665
 2121POPC    CB12246   2.225   2.663  10.695
 2121POPC    OA12247   2.156   2.714  10.584
 2121POPC     P12248   2.047   2.821  10.617
 2121POPC    OB12249   2.128   2.921  10.689
 2121POPC    OC12250   1.940   2.761  10.696
 2121POPC    OD12251   2.003   2.879  10.476
 2121POPC    CC12252   2.021   2.799  10.357
 2121POPC    CD12253   2.159   2.810  10.288
 2121POPC    OE12254   2.177   2.929  10.207
 2121POPC   C1A12255   2.300   2.978  10.191
 2121POPC    OF12256   2.394   2.934  10.259
 2121POPC   C1B12257   2.301   3.105  10.115
 2121POPC   C1C12258   2.427   3.133  10.033
 2121POPC   C1D12259   2.422   3.072   9.893
 2121POPC   C1E12260   2.516   3.152   9.801
 2121POPC   C1F12261   2.509   3.106   9.655
 2121POPC   C1G12262   2.596   3.196   9.568
 2121POPC   C1H12263   2.591   3.153   9.421
 2121POPC   C1I12264   2.674   3.246   9.333
 2121POPC   C1J12265   2.632   3.274   9.210
 2121POPC   C1K12266   2.502   3.211   9.159
 2121POPC   C1L12267   2.485   3.213   9.007
 2121POPC   C1M12268   2.593   3.134   8.932
 2121POPC   C1N12269   2.565   3.116   8.782
 2121POPC   C1O12270   2.538   3.248   8.709
 2121POPC   C1P12271   2.557   3.237   8.557
 2121POPC   C1Q12272   2.465   3.136   8.488
 2121POPC   C1R12273   2.500   3.129   8.339
 2121POPC    CE12274   2.196   2.674  10.225
 2121POPC    OG12275   2.125   2.630  10.109
 2121POPC   C2A12276   2.183   2.652   9.992
 2121POPC    OH12277   2.297   2.698   9.984
 2121POPC   C2B12278   2.106   2.596   9.879
 2121POPC   C2C12279   2.093   2.691   9.760
 2121POPC   C2D12280   2.029   2.617   9.642
 2121POPC   C2E12281   2.003   2.707   9.521
 2121POPC   C2F12282   1.968   2.622   9.399
 2121POPC   C2G12283   1.941   2.703   9.271
 2121POPC   C2H12284   1.798   2.756   9.260
 2121POPC   C2I12285   1.778   2.821   9.122
 2121POPC   C2J12286   1.633   2.836   9.074
 2121POPC   C2K12287   1.636   2.925   8.950
 2121POPC   C2L12288   1.519   2.908   8.853
 2121POPC   C2M12289   1.541   3.003   8.734
 2121POPC   C2N12290   1.439   2.984   8.622
 2121POPC   C2O12291   1.469   3.081   8.508
 2121POPC   C2P12292   1.371   3.066   8.391
 2122POPC   CN112293   3.087   5.342  10.806
 2122POPC   CN212294   3.162   5.223  10.616
 2122POPC   CN312295   3.086   5.106  10.812
 2122POPC   NTM12296   3.160   5.223  10.764
 2122POPC    CA12297   3.299   5.231  10.816
 2122POPC    CB12298   3.393   5.108  10.820
 2122POPC    OA12299   3.444   5.060  10.696
 2122POPC     P12300   3.417   4.905  10.673
 2122POPC    OB12301   3.273   4.909  10.654
 2122POPC    OC12302   3.474   4.858  10.802
 2122POPC    OD12303   3.512   4.890  10.548
 2122POPC    CC12304   3.512   4.978  10.433
 2122POPC    CD12305   3.389   5.045  10.371
 2122POPC    OE12306   3.329   4.975  10.259
 2122POPC   C1A12307   3.214   5.024  10.212
 2122POPC    OF12308   3.142   5.093  10.286
 2122POPC   C1B12309   3.182   4.974  10.076
 2122POPC   C1C12310   3.093   5.072  10.001
 2122POPC   C1D12311   3.156   5.147   9.884
 2122POPC   C1E12312   3.047   5.232   9.819
 2122POPC   C1F12313   3.081   5.277   9.677
 2122POPC   C1G12314   2.954   5.324   9.606
 2122POPC   C1H12315   2.983   5.364   9.462
 2122POPC   C1I12316   2.854   5.369   9.379
 2122POPC   C1J12317   2.860   5.340   9.250
 2122POPC   C1K12318   2.996   5.306   9.186
 2122POPC   C1L12319   3.003   5.334   9.036
 2122POPC   C1M12320   2.984   5.482   9.001
 2122POPC   C1N12321   3.013   5.514   8.853
 2122POPC   C1O12322   2.923   5.439   8.755
 2122POPC   C1P12323   2.941   5.489   8.611
 2122POPC   C1Q12324   3.082   5.465   8.556
 2122POPC   C1R12325   3.097   5.524   8.416
 2122POPC    CE12326   3.441   5.183  10.329
 2122POPC    OG12327   3.540   5.185  10.224
 2122POPC   C2A12328   3.495   5.223  10.105
 2122POPC    OH12329   3.377   5.257  10.090
 2122POPC   C2B12330   3.598   5.229   9.998
 2122POPC   C2C12331   3.532   5.228   9.860
 2122POPC   C2D12332   3.632   5.214   9.746
 2122POPC   C2E12333   3.557   5.184   9.617
 2122POPC   C2F12334   3.657   5.139   9.510
 2122POPC   C2G12335   3.590   5.067   9.393
 2122POPC   C2H12336   3.701   5.011   9.305
 2122POPC   C2I12337   3.654   4.920   9.192
 2122POPC   C2J12338   3.775   4.875   9.111
 2122POPC   C2K12339   3.735   4.789   8.992
 2122POPC   C2L12340   3.848   4.783   8.889
 2122POPC   C2M12341   3.800   4.712   8.763
 2122POPC   C2N12342   3.886   4.748   8.642
 2122POPC   C2O12343   3.835   4.676   8.517
 2122POPC   C2P12344   3.904   4.726   8.391
 2123POPC   CN112345   5.323   1.982  10.686
 2123POPC   CN212346   5.361   2.166  10.547
 2123POPC   CN312347   5.450   2.172  10.765
 2123POPC   NTM12348   5.333   2.128  10.686
 2123POPC    CA12349   5.207   2.185  10.740
 2123POPC    CB12350   5.190   2.338  10.755
 2123POPC    OA12351   5.203   2.396  10.628
 2123POPC     P12352   5.258   2.543  10.622
 2123POPC    OB12353   5.380   2.515  10.700
 2123POPC    OC12354   5.142   2.606  10.684
 2123POPC    OD12355   5.272   2.535  10.465
 2123POPC    CC12356   5.163   2.492  10.382
 2123POPC    CD12357   5.204   2.375  10.289
 2123POPC    OE12358   5.281   2.418  10.176
 2123POPC   C1A12359   5.384   2.341  10.142
 2123POPC    OF12360   5.415   2.243  10.211
 2123POPC   C1B12361   5.460   2.401  10.030
 2123POPC   C1C12362   5.505   2.299   9.926
 2123POPC   C1D12363   5.391   2.250   9.836
 2123POPC   C1E12364   5.455   2.163   9.729
 2123POPC   C1F12365   5.363   2.130   9.611
 2123POPC   C1G12366   5.452   2.062   9.507
 2123POPC   C1H12367   5.382   2.032   9.375
 2123POPC   C1I12368   5.485   1.968   9.281
 2123POPC   C1J12369   5.480   1.987   9.150
 2123POPC   C1K12370   5.367   2.070   9.090
 2123POPC   C1L12371   5.345   2.043   8.940
 2123POPC   C1M12372   5.303   1.899   8.908
 2123POPC   C1N12373   5.258   1.884   8.762
 2123POPC   C1O12374   5.370   1.913   8.662
 2123POPC   C1P12375   5.323   1.897   8.517
 2123POPC   C1Q12376   5.299   2.031   8.448
 2123POPC   C1R12377   5.264   2.011   8.301
 2123POPC    CE12378   5.091   2.274  10.258
 2123POPC    OG12379   4.972   2.312  10.187
 2123POPC   C2A12380   4.953   2.261  10.065
 2123POPC    OH12381   5.029   2.174  10.023
 2123POPC   C2B12382   4.830   2.309   9.997
 2123POPC   C2C12383   4.833   2.299   9.844
 2123POPC   C2D12384   4.736   2.398   9.776
 2123POPC   C2E12385   4.742   2.386   9.624
 2123POPC   C2F12386   4.692   2.512   9.550
 2123POPC   C2G12387   4.707   2.495   9.399
 2123POPC   C2H12388   4.696   2.626   9.321
 2123POPC   C2I12389   4.719   2.604   9.171
 2123POPC   C2J12390   4.722   2.735   9.093
 2123POPC   C2K12391   4.733   2.715   8.941
 2123POPC   C2L12392   4.728   2.851   8.871
 2123POPC   C2M12393   4.728   2.843   8.718
 2123POPC   C2N12394   4.726   2.985   8.661
 2123POPC   C2O12395   4.721   2.987   8.508
 2123POPC   C2P12396   4.717   3.132   8.457
 2124POPC   CN112397   1.357   0.674  10.745
 2124POPC   CN212398   1.243   0.824  10.612
 2124POPC   CN312399   1.317   0.903  10.819
 2124POPC   NTM12400   1.262   0.785  10.751
 2124POPC    CA12401   1.140   0.735  10.818
 2124POPC    CB12402   1.013   0.821  10.829
 2124POPC    OA12403   0.933   0.817  10.712
 2124POPC     P12404   0.871   0.958  10.671
 2124POPC    OB12405   0.999   1.030  10.668
 2124POPC    OC12406   0.789   0.955  10.795
 2124POPC    OD12407   0.805   0.891  10.542
 2124POPC    CC12408   0.861   0.795  10.450
 2124POPC    CD12409   0.993   0.795  10.371
 2124POPC    OE12410   1.029   0.914  10.296
 2124POPC   C1A12411   1.157   0.928  10.262
 2124POPC    OF12412   1.244   0.866  10.324
 2124POPC   C1B12413   1.183   1.043  10.173
 2124POPC   C1C12414   1.167   1.015  10.023
 2124POPC   C1D12415   1.271   0.925   9.954
 2124POPC   C1E12416   1.273   0.970   9.807
 2124POPC   C1F12417   1.353   0.888   9.705
 2124POPC   C1G12418   1.350   0.968   9.573
 2124POPC   C1H12419   1.397   0.900   9.443
 2124POPC   C1I12420   1.546   0.918   9.409
 2124POPC   C1J12421   1.588   0.942   9.284
 2124POPC   C1K12422   1.489   0.949   9.167
 2124POPC   C1L12423   1.548   0.952   9.025
 2124POPC   C1M12424   1.651   0.843   8.988
 2124POPC   C1N12425   1.629   0.775   8.852
 2124POPC   C1O12426   1.614   0.870   8.732
 2124POPC   C1P12427   1.599   0.798   8.597
 2124POPC   C1Q12428   1.476   0.707   8.588
 2124POPC   C1R12429   1.453   0.657   8.445
 2124POPC    CE12430   1.002   0.660  10.295
 2124POPC    OG12431   0.884   0.603  10.236
 2124POPC   C2A12432   0.889   0.584  10.103
 2124POPC    OH12433   0.993   0.604  10.041
 2124POPC   C2B12434   0.762   0.531  10.045
 2124POPC   C2C12435   0.775   0.486   9.899
 2124POPC   C2D12436   0.646   0.508   9.819
 2124POPC   C2E12437   0.666   0.487   9.668
 2124POPC   C2F12438   0.547   0.533   9.584
 2124POPC   C2G12439   0.577   0.531   9.433
 2124POPC   C2H12440   0.458   0.579   9.348
 2124POPC   C2I12441   0.495   0.596   9.200
 2124POPC   C2J12442   0.376   0.643   9.114
 2124POPC   C2K12443   0.420   0.674   8.971
 2124POPC   C2L12444   0.306   0.726   8.882
 2124POPC   C2M12445   0.362   0.780   8.750
 2124POPC   C2N12446   0.255   0.835   8.655
 2124POPC   C2O12447   0.321   0.901   8.534
 2124POPC   C2P12448   0.217   0.945   8.431
 2125POPC   CN112449   0.172   3.541  10.671
 2125POPC   CN212450   0.357   3.513  10.538
 2125POPC   CN312451   0.374   3.477  10.777
 2125POPC   NTM12452   0.316   3.560  10.671
 2125POPC    CA12453   0.359   3.701  10.687
 2125POPC    CB12454   0.509   3.731  10.707
 2125POPC    OA12455   0.586   3.678  10.601
 2125POPC     P12456   0.735   3.730  10.605
 2125POPC    OB12457   0.800   3.647  10.708
 2125POPC    OC12458   0.712   3.871  10.637
 2125POPC    OD12459   0.788   3.706  10.461
 2125POPC    CC12460   0.710   3.760  10.354
 2125POPC    CD12461   0.634   3.652  10.274
 2125POPC    OE12462   0.725   3.573  10.195
 2125POPC   C1A12463   0.684   3.464  10.131
 2125POPC    OF12464   0.565   3.432  10.138
 2125POPC   C1B12465   0.796   3.383  10.078
 2125POPC   C1C12466   0.757   3.268   9.987
 2125POPC   C1D12467   0.713   3.314   9.848
 2125POPC   C1E12468   0.673   3.189   9.769
 2125POPC   C1F12469   0.627   3.226   9.628
 2125POPC   C1G12470   0.573   3.102   9.559
 2125POPC   C1H12471   0.524   3.137   9.419
 2125POPC   C1I12472   0.461   3.015   9.352
 2125POPC   C1J12473   0.472   3.001   9.220
 2125POPC   C1K12474   0.547   3.105   9.137
 2125POPC   C1L12475   0.555   3.068   8.988
 2125POPC   C1M12476   0.418   3.068   8.920
 2125POPC   C1N12477   0.424   3.064   8.767
 2125POPC   C1O12478   0.503   2.943   8.713
 2125POPC   C1P12479   0.484   2.922   8.562
 2125POPC   C1Q12480   0.524   3.042   8.476
 2125POPC   C1R12481   0.513   3.009   8.327
 2125POPC    CE12482   0.514   3.720  10.206
 2125POPC    OG12483   0.544   3.799  10.092
 2125POPC   C2A12484   0.520   3.738   9.977
 2125POPC    OH12485   0.417   3.673   9.966
 2125POPC   C2B12486   0.596   3.798   9.865
 2125POPC   C2C12487   0.615   3.709   9.743
 2125POPC   C2D12488   0.660   3.801   9.631
 2125POPC   C2E12489   0.698   3.727   9.504
 2125POPC   C2F12490   0.732   3.831   9.397
 2125POPC   C2G12491   0.801   3.763   9.280
 2125POPC   C2H12492   0.830   3.861   9.167
 2125POPC   C2I12493   0.927   3.794   9.071
 2125POPC   C2J12494   0.956   3.877   8.946
 2125POPC   C2K12495   1.072   3.810   8.873
 2125POPC   C2L12496   1.103   3.873   8.738
 2125POPC   C2M12497   1.235   3.814   8.688
 2125POPC   C2N12498   1.265   3.852   8.543
 2125POPC   C2O12499   1.396   3.786   8.499
 2125POPC   C2P12500   1.431   3.822   8.354
 2126POPC   CN112501   0.397   1.872  10.715
 2126POPC   CN212502   0.485   1.704  10.577
 2126POPC   CN312503   0.440   1.653  10.805
 2126POPC   NTM12504   0.488   1.758  10.715
 2126POPC    CA12505   0.622   1.802  10.761
 2126POPC    CB12506   0.739   1.701  10.771
 2126POPC    OA12507   0.782   1.666  10.642
 2126POPC     P12508   0.822   1.514  10.626
 2126POPC    OB12509   0.691   1.457  10.661
 2126POPC    OC12510   0.931   1.507  10.724
 2126POPC    OD12511   0.858   1.511  10.472
 2126POPC    CC12512   0.888   1.630  10.396
 2126POPC    CD12513   0.764   1.702  10.337
 2126POPC    OE12514   0.716   1.649  10.212
 2126POPC   C1A12515   0.589   1.668  10.181
 2126POPC    OF12516   0.510   1.723  10.259
 2126POPC   C1B12517   0.558   1.605  10.051
 2126POPC   C1C12518   0.431   1.651   9.982
 2126POPC   C1D12519   0.467   1.739   9.863
 2126POPC   C1E12520   0.350   1.748   9.766
 2126POPC   C1F12521   0.393   1.834   9.648
 2126POPC   C1G12522   0.286   1.836   9.539
 2126POPC   C1H12523   0.334   1.926   9.426
 2126POPC   C1I12524   0.239   1.924   9.307
 2126POPC   C1J12525   0.289   1.947   9.186
 2126POPC   C1K12526   0.439   1.975   9.172
 2126POPC   C1L12527   0.477   2.017   9.030
 2126POPC   C1M12528   0.450   2.165   9.000
 2126POPC   C1N12529   0.476   2.195   8.852
 2126POPC   C1O12530   0.358   2.151   8.764
 2126POPC   C1P12531   0.387   2.156   8.614
 2126POPC   C1Q12532   0.434   2.292   8.563
 2126POPC   C1R12533   0.448   2.291   8.411
 2126POPC    CE12534   0.793   1.854  10.337
 2126POPC    OG12535   0.893   1.903  10.247
 2126POPC   C2A12536   0.852   1.933  10.123
 2126POPC    OH12537   0.733   1.944  10.094
 2126POPC   C2B12538   0.965   1.971  10.035
 2126POPC   C2C12539   0.937   1.931   9.890
 2126POPC   C2D12540   1.056   1.967   9.802
 2126POPC   C2E12541   1.026   1.927   9.657
 2126POPC   C2F12542   1.145   1.956   9.567
 2126POPC   C2G12543   1.113   1.908   9.426
 2126POPC   C2H12544   1.229   1.932   9.329
 2126POPC   C2I12545   1.193   1.867   9.196
 2126POPC   C2J12546   1.302   1.886   9.091
 2126POPC   C2K12547   1.271   1.792   8.975
 2126POPC   C2L12548   1.370   1.806   8.860
 2126POPC   C2M12549   1.372   1.675   8.782
 2126POPC   C2N12550   1.363   1.697   8.632
 2126POPC   C2O12551   1.384   1.565   8.558
 2126POPC   C2P12552   1.380   1.583   8.406
 2127POPC   CN112553   1.992   6.157  10.805
 2127POPC   CN212554   1.847   6.194  10.623
 2127POPC   CN312555   1.789   6.276  10.840
 2127POPC   NTM12556   1.851   6.165  10.768
 2127POPC    CA12557   1.788   6.034  10.800
 2127POPC    CB12558   1.637   6.008  10.781
 2127POPC    OA12559   1.596   6.016  10.646
 2127POPC     P12560   1.467   6.104  10.628
 2127POPC    OB12561   1.524   6.236  10.657
 2127POPC    OC12562   1.378   6.051  10.733
 2127POPC    OD12563   1.423   6.092  10.478
 2127POPC    CC12564   1.493   6.003  10.389
 2127POPC    CD12565   1.632   6.048  10.339
 2127POPC    OE12566   1.626   6.152  10.239
 2127POPC   C1A12567   1.733   6.227  10.215
 2127POPC    OF12568   1.820   6.236  10.303
 2127POPC   C1B12569   1.708   6.321  10.103
 2127POPC   C1C12570   1.830   6.362  10.020
 2127POPC   C1D12571   1.847   6.283   9.889
 2127POPC   C1E12572   1.954   6.352   9.805
 2127POPC   C1F12573   1.973   6.292   9.666
 2127POPC   C1G12574   2.070   6.378   9.584
 2127POPC   C1H12575   2.081   6.328   9.440
 2127POPC   C1I12576   2.176   6.413   9.355
 2127POPC   C1J12577   2.172   6.406   9.222
 2127POPC   C1K12578   2.076   6.311   9.150
 2127POPC   C1L12579   2.113   6.276   9.005
 2127POPC   C1M12580   2.251   6.210   8.990
 2127POPC   C1N12581   2.284   6.149   8.852
 2127POPC   C1O12582   2.241   6.233   8.731
 2127POPC   C1P12583   2.298   6.186   8.596
 2127POPC   C1Q12584   2.312   6.035   8.575
 2127POPC   C1R12585   2.352   6.003   8.431
 2127POPC    CE12586   1.706   5.919  10.297
 2127POPC    OG12587   1.647   5.848  10.187
 2127POPC   C2A12588   1.683   5.893  10.067
 2127POPC    OH12589   1.782   5.964  10.051
 2127POPC   C2B12590   1.607   5.828   9.958
 2127POPC   C2C12591   1.625   5.897   9.824
 2127POPC   C2D12592   1.569   5.806   9.715
 2127POPC   C2E12593   1.592   5.867   9.578
 2127POPC   C2F12594   1.491   5.806   9.483
 2127POPC   C2G12595   1.509   5.861   9.342
 2127POPC   C2H12596   1.396   5.812   9.253
 2127POPC   C2I12597   1.419   5.862   9.111
 2127POPC   C2J12598   1.307   5.816   9.019
 2127POPC   C2K12599   1.336   5.870   8.879
 2127POPC   C2L12600   1.226   5.831   8.780
 2127POPC   C2M12601   1.253   5.905   8.649
 2127POPC   C2N12602   1.144   5.877   8.546
 2127POPC   C2O12603   1.169   5.963   8.422
 2127POPC   C2P12604   1.061   5.938   8.316
 2128POPC   CN112605   1.670   1.141  10.840
 2128POPC   CN212606   1.686   1.233  10.618
 2128POPC   CN312607   1.698   1.375  10.807
 2128POPC   NTM12608   1.634   1.253  10.755
 2128POPC    CA12609   1.486   1.259  10.752
 2128POPC    CB12610   1.414   1.393  10.730
 2128POPC    OA12611   1.476   1.457  10.621
 2128POPC     P12612   1.449   1.612  10.612
 2128POPC    OB12613   1.555   1.653  10.706
 2128POPC    OC12614   1.310   1.624  10.653
 2128POPC    OD12615   1.483   1.631  10.460
 2128POPC    CC12616   1.436   1.532  10.367
 2128POPC    CD12617   1.549   1.444  10.310
 2128POPC    OE12618   1.604   1.497  10.187
 2128POPC   C1A12619   1.730   1.467  10.157
 2128POPC    OF12620   1.805   1.421  10.244
 2128POPC   C1B12621   1.764   1.512  10.020
 2128POPC   C1C12622   1.912   1.502   9.982
 2128POPC   C1D12623   1.961   1.360   9.951
 2128POPC   C1E12624   1.981   1.336   9.801
 2128POPC   C1F12625   2.047   1.202   9.768
 2128POPC   C1G12626   2.130   1.202   9.638
 2128POPC   C1H12627   2.064   1.188   9.500
 2128POPC   C1I12628   2.179   1.175   9.400
 2128POPC   C1J12629   2.181   1.192   9.267
 2128POPC   C1K12630   2.059   1.226   9.182
 2128POPC   C1L12631   2.076   1.203   9.031
 2128POPC   C1M12632   2.102   1.057   8.992
 2128POPC   C1N12633   2.080   1.026   8.843
 2128POPC   C1O12634   2.161   1.113   8.747
 2128POPC   C1P12635   2.164   1.057   8.604
 2128POPC   C1Q12636   2.026   1.040   8.541
 2128POPC   C1R12637   2.036   0.993   8.395
 2128POPC    CE12638   1.489   1.303  10.289
 2128POPC    OG12639   1.377   1.305  10.200
 2128POPC   C2A12640   1.410   1.290  10.072
 2128POPC    OH12641   1.494   1.205  10.041
 2128POPC   C2B12642   1.310   1.349   9.980
 2128POPC   C2C12643   1.359   1.348   9.836
 2128POPC   C2D12644   1.241   1.364   9.740
 2128POPC   C2E12645   1.288   1.330   9.600
 2128POPC   C2F12646   1.176   1.338   9.498
 2128POPC   C2G12647   1.228   1.303   9.359
 2128POPC   C2H12648   1.130   1.356   9.255
 2128POPC   C2I12649   1.178   1.340   9.112
 2128POPC   C2J12650   1.082   1.420   9.024
 2128POPC   C2K12651   1.108   1.401   8.874
 2128POPC   C2L12652   1.017   1.496   8.797
 2128POPC   C2M12653   1.033   1.475   8.646
 2128POPC   C2N12654   0.970   1.591   8.567
 2128POPC   C2O12655   0.998   1.572   8.418
 2128POPC   C2P12656   0.949   1.691   8.336
   6.31000   6.34000  16.00000
