pure POPC
 6656
    1POPC   CN1    1   0.168   2.236   0.245
    1POPC   CN2    2   0.342   2.300   0.390
    1POPC   CN3    3   0.365   2.344   0.157
    1POPC   NTM    4   0.314   2.248   0.255
    1POPC    CA    5   0.378   2.116   0.234
    1POPC    CB    6   0.532   2.103   0.243
    1POPC    OA    7   0.576   2.128   0.374
    1POPC     P    8   0.733   2.130   0.387
    1POPC    OB    9   0.759   2.253   0.312
    1POPC    OC   10   0.766   1.998   0.327
    1POPC    OD   11   0.749   2.134   0.543
    1POPC    CC   12   0.654   2.069   0.629
    1POPC    CD   13   0.550   2.165   0.690
    1POPC    OE   14   0.607   2.244   0.796
    1POPC   C1A   15   0.541   2.352   0.838
    1POPC    OF   16   0.429   2.375   0.793
    1POPC   C1B   17   0.623   2.434   0.929
    1POPC   C1C   18   0.547   2.553   0.986
    1POPC   C1D   19   0.480   2.515   1.117
    1POPC   C1E   20   0.458   2.641   1.200
    1POPC   C1F   21   0.389   2.594   1.327
    1POPC   C1G   22   0.351   2.705   1.422
    1POPC   C1H   23   0.253   2.640   1.518
    1POPC   C1I   24   0.197   2.734   1.622
    1POPC   C1J   25   0.243   2.736   1.745
    1POPC   C1K   26   0.347   2.641   1.806
    1POPC   C1L   27   0.337   2.638   1.959
    1POPC   C1M   28   0.192   2.619   2.007
    1POPC   C1N   29   0.177   2.571   2.151
    1POPC   C1O   30   0.248   2.652   2.259
    1POPC   C1P   31   0.173   2.625   2.389
    1POPC   C1Q   32   0.265   2.616   2.509
    1POPC   C1R   33   0.182   2.595   2.636
    1POPC    CE   34   0.422   2.087   0.724
    1POPC    OG   35   0.425   1.995   0.833
    1POPC   C2A   36   0.384   2.045   0.950
    1POPC    OH   37   0.302   2.136   0.953
    1POPC   C2B   38   0.413   1.953   1.063
    1POPC   C2C   39   0.453   2.028   1.190
    1POPC   C2D   40   0.489   1.928   1.300
    1POPC   C2E   41   0.532   2.003   1.426
    1POPC   C2F   42   0.566   1.909   1.542
    1POPC   C2G   43   0.607   1.996   1.661
    1POPC   C2H   44   0.632   1.921   1.792
    1POPC   C2I   45   0.696   2.022   1.888
    1POPC   C2J   46   0.730   1.964   2.025
    1POPC   C2K   47   0.830   2.056   2.096
    1POPC   C2L   48   0.876   1.992   2.227
    1POPC   C2M   49   0.971   2.080   2.309
    1POPC   C2N   50   0.997   2.012   2.443
    1POPC   C2O   51   1.076   2.099   2.541
    1POPC   C2P   52   1.085   2.030   2.677
    2POPC   CN1   53   4.112   0.414   0.193
    2POPC   CN2   54   3.998   0.355   0.389
    2POPC   CN3   55   3.940   0.246   0.183
    2POPC   NTM   56   3.981   0.373   0.243
    2POPC    CA   57   3.883   0.482   0.214
    2POPC    CB   58   3.731   0.459   0.234
    2POPC    OA   59   3.710   0.396   0.359
    2POPC     P   60   3.585   0.304   0.382
    2POPC    OB   61   3.653   0.174   0.395
    2POPC    OC   62   3.506   0.327   0.260
    2POPC    OD   63   3.516   0.374   0.507
    2POPC    CC   64   3.583   0.468   0.594
    2POPC    CD   65   3.715   0.433   0.667
    2POPC    OE   66   3.704   0.350   0.785
    2POPC   C1A   67   3.816   0.301   0.836
    2POPC    OF   68   3.918   0.294   0.765
    2POPC   C1B   69   3.792   0.234   0.966
    2POPC   C1C   70   3.916   0.218   1.054
    2POPC   C1D   71   3.957   0.346   1.128
    2POPC   C1E   72   4.064   0.307   1.229
    2POPC   C1F   73   4.093   0.418   1.330
    2POPC   C1G   74   4.187   0.360   1.435
    2POPC   C1H   75   4.207   0.453   1.555
    2POPC   C1I   76   4.296   0.378   1.654
    2POPC   C1J   77   4.269   0.373   1.784
    2POPC   C1K   78   4.154   0.449   1.850
    2POPC   C1L   79   4.174   0.464   2.001
    2POPC   C1M   80   4.310   0.527   2.036
    2POPC   C1N   81   4.327   0.595   2.172
    2POPC   C1O   82   4.300   0.509   2.296
    2POPC   C1P   83   4.325   0.582   2.429
    2POPC   C1Q   84   4.282   0.730   2.435
    2POPC   C1R   85   4.273   0.782   2.578
    2POPC    CE   86   3.783   0.568   0.698
    2POPC    OG   87   3.704   0.659   0.774
    2POPC   C2A   88   3.740   0.671   0.901
    2POPC    OH   89   3.857   0.653   0.938
    2POPC   C2B   90   3.635   0.739   0.978
    2POPC   C2C   91   3.624   0.693   1.123
    2POPC   C2D   92   3.535   0.794   1.195
    2POPC   C2E   93   3.521   0.753   1.341
    2POPC   C2F   94   3.454   0.860   1.426
    2POPC   C2G   95   3.426   0.788   1.557
    2POPC   C2H   96   3.380   0.876   1.672
    2POPC   C2I   97   3.353   0.782   1.790
    2POPC   C2J   98   3.326   0.860   1.918
    2POPC   C2K   99   3.308   0.769   2.040
    2POPC   C2L  100   3.274   0.852   2.164
    2POPC   C2M  101   3.269   0.761   2.287
    2POPC   C2N  102   3.208   0.831   2.409
    2POPC   C2O  103   3.211   0.737   2.529
    2POPC   C2P  104   3.123   0.785   2.645
    3POPC   CN1  105   2.017   1.227   0.174
    3POPC   CN2  106   2.169   1.302   0.334
    3POPC   CN3  107   2.216   1.346   0.105
    3POPC   NTM  108   2.160   1.247   0.198
    3POPC    CA  109   2.230   1.117   0.185
    3POPC    CB  110   2.382   1.108   0.210
    3POPC    OA  111   2.412   1.149   0.341
    3POPC     P  112   2.564   1.180   0.368
    3POPC    OB  113   2.572   1.313   0.304
    3POPC    OC  114   2.629   1.066   0.304
    3POPC    OD  115   2.566   1.179   0.526
    3POPC    CC  116   2.477   1.095   0.599
    3POPC    CD  117   2.349   1.165   0.649
    3POPC    OE  118   2.376   1.270   0.744
    3POPC   C1A  119   2.284   1.362   0.768
    3POPC    OF  120   2.191   1.382   0.688
    3POPC   C1B  121   2.332   1.453   0.873
    3POPC   C1C  122   2.227   1.499   0.973
    3POPC   C1D  123   2.247   1.431   1.108
    3POPC   C1E  124   2.148   1.502   1.199
    3POPC   C1F  125   2.133   1.455   1.343
    3POPC   C1G  126   2.033   1.553   1.403
    3POPC   C1H  127   2.008   1.528   1.551
    3POPC   C1I  128   1.926   1.645   1.603
    3POPC   C1J  129   1.922   1.662   1.734
    3POPC   C1K  130   1.992   1.563   1.826
    3POPC   C1L  131   1.993   1.604   1.974
    3POPC   C1M  132   1.861   1.669   2.019
    3POPC   C1N  133   1.811   1.632   2.158
    3POPC   C1O  134   1.920   1.633   2.265
    3POPC   C1P  135   1.851   1.632   2.401
    3POPC   C1Q  136   1.950   1.600   2.513
    3POPC   C1R  137   1.880   1.610   2.648
    3POPC    CE  138   2.249   1.058   0.697
    3POPC    OG  139   2.282   0.966   0.803
    3POPC   C2A  140   2.255   1.006   0.927
    3POPC    OH  141   2.231   1.123   0.953
    3POPC   C2B  142   2.277   0.902   1.031
    3POPC   C2C  143   2.274   0.965   1.171
    3POPC   C2D  144   2.339   0.877   1.277
    3POPC   C2E  145   2.337   0.950   1.410
    3POPC   C2F  146   2.419   0.876   1.516
    3POPC   C2G  147   2.405   0.949   1.649
    3POPC   C2H  148   2.497   0.893   1.757
    3POPC   C2I  149   2.474   0.974   1.884
    3POPC   C2J  150   2.574   0.940   1.995
    3POPC   C2K  151   2.546   1.025   2.119
    3POPC   C2L  152   2.646   0.995   2.230
    3POPC   C2M  153   2.616   1.074   2.358
    3POPC   C2N  154   2.709   1.025   2.470
    3POPC   C2O  155   2.677   1.091   2.604
    3POPC   C2P  156   2.758   1.025   2.716
    4POPC   CN1  157   4.106   1.765   0.392
    4POPC   CN2  158   4.112   1.553   0.478
    4POPC   CN3  159   4.165   1.576   0.247
    4POPC   NTM  160   4.079   1.626   0.354
    4POPC    CA  161   3.937   1.616   0.314
    4POPC    CB  162   3.876   1.480   0.274
    4POPC    OA  163   3.852   1.404   0.390
    4POPC     P  164   3.884   1.250   0.386
    4POPC    OB  165   4.032   1.259   0.376
    4POPC    OC  166   3.814   1.219   0.260
    4POPC    OD  167   3.817   1.211   0.522
    4POPC    CC  168   3.788   1.304   0.629
    4POPC    CD  169   3.898   1.380   0.705
    4POPC    OE  170   3.988   1.295   0.777
    4POPC   C1A  171   4.101   1.350   0.817
    4POPC    OF  172   4.171   1.408   0.732
    4POPC   C1B  173   4.134   1.303   0.953
    4POPC   C1C  174   4.275   1.335   0.999
    4POPC   C1D  175   4.274   1.312   1.150
    4POPC   C1E  176   4.410   1.341   1.213
    4POPC   C1F  177   4.391   1.338   1.364
    4POPC   C1G  178   4.520   1.365   1.439
    4POPC   C1H  179   4.486   1.383   1.587
    4POPC   C1I  180   4.615   1.376   1.668
    4POPC   C1J  181   4.611   1.326   1.790
    4POPC   C1K  182   4.478   1.283   1.852
    4POPC   C1L  183   4.482   1.272   2.005
    4POPC   C1M  184   4.547   1.395   2.071
    4POPC   C1N  185   4.514   1.420   2.218
    4POPC   C1O  186   4.519   1.299   2.312
    4POPC   C1P  187   4.494   1.353   2.453
    4POPC   C1Q  188   4.477   1.243   2.557
    4POPC   C1R  189   4.462   1.306   2.696
    4POPC    CE  190   3.835   1.497   0.783
    4POPC    OG  191   3.737   1.482   0.887
    4POPC   C2A  192   3.772   1.510   1.013
    4POPC    OH  193   3.891   1.519   1.043
    4POPC   C2B  194   3.655   1.526   1.105
    4POPC   C2C  195   3.686   1.543   1.255
    4POPC   C2D  196   3.571   1.490   1.343
    4POPC   C2E  197   3.617   1.447   1.484
    4POPC   C2F  198   3.516   1.365   1.566
    4POPC   C2G  199   3.585   1.284   1.677
    4POPC   C2H  200   3.500   1.230   1.793
    4POPC   C2I  201   3.578   1.124   1.873
    4POPC   C2J  202   3.544   1.106   2.022
    4POPC   C2K  203   3.625   0.994   2.090
    4POPC   C2L  204   3.593   0.982   2.240
    4POPC   C2M  205   3.643   0.856   2.311
    4POPC   C2N  206   3.585   0.844   2.453
    4POPC   C2O  207   3.624   0.718   2.530
    4POPC   C2P  208   3.548   0.701   2.661
    5POPC   CN1  209   0.017   0.563   0.354
    5POPC   CN2  210  -0.195   0.543   0.452
    5POPC   CN3  211  -0.163   0.471   0.226
    5POPC   NTM  212  -0.126   0.573   0.325
    5POPC    CA  213  -0.156   0.706   0.267
    5POPC    CB  214  -0.303   0.746   0.244
    5POPC    OA  215  -0.355   0.780   0.370
    5POPC     P  216  -0.511   0.782   0.381
    5POPC    OB  217  -0.544   0.644   0.344
    5POPC    OC  218  -0.533   0.884   0.277
    5POPC    OD  219  -0.526   0.832   0.529
    5POPC    CC  220  -0.418   0.889   0.607
    5POPC    CD  221  -0.320   0.801   0.688
    5POPC    OE  222  -0.386   0.733   0.794
    5POPC   C1A  223  -0.333   0.621   0.839
    5POPC    OF  224  -0.258   0.557   0.763
    5POPC   C1B  225  -0.405   0.578   0.960
    5POPC   C1C  226  -0.349   0.463   1.043
    5POPC   C1D  227  -0.236   0.508   1.134
    5POPC   C1E  228  -0.244   0.428   1.264
    5POPC   C1F  229  -0.132   0.468   1.360
    5POPC   C1G  230  -0.148   0.390   1.491
    5POPC   C1H  231  -0.043   0.428   1.595
    5POPC   C1I  232  -0.029   0.314   1.696
    5POPC   C1J  233  -0.064   0.323   1.824
    5POPC   C1K  234  -0.117   0.452   1.887
    5POPC   C1L  235  -0.096   0.464   2.038
    5POPC   C1M  236   0.050   0.442   2.080
    5POPC   C1N  237   0.088   0.495   2.219
    5POPC   C1O  238   0.015   0.436   2.339
    5POPC   C1P  239   0.088   0.482   2.466
    5POPC   C1Q  240  -0.001   0.485   2.590
    5POPC   C1R  241   0.074   0.540   2.711
    5POPC    CE  242  -0.187   0.872   0.729
    5POPC    OG  243  -0.172   0.986   0.816
    5POPC   C2A  244  -0.165   0.968   0.948
    5POPC    OH  245  -0.149   0.854   0.993
    5POPC   C2B  246  -0.162   1.095   1.026
    5POPC   C2C  247  -0.125   1.091   1.176
    5POPC   C2D  248  -0.215   1.187   1.257
    5POPC   C2E  249  -0.210   1.170   1.410
    5POPC   C2F  250  -0.325   1.247   1.477
    5POPC   C2G  251  -0.325   1.237   1.631
    5POPC   C2H  252  -0.433   1.326   1.695
    5POPC   C2I  253  -0.436   1.312   1.847
    5POPC   C2J  254  -0.540   1.401   1.917
    5POPC   C2K  255  -0.559   1.353   2.062
    5POPC   C2L  256  -0.653   1.435   2.150
    5POPC   C2M  257  -0.696   1.353   2.272
    5POPC   C2N  258  -0.762   1.439   2.380
    5POPC   C2O  259  -0.824   1.355   2.491
    5POPC   C2P  260  -0.878   1.443   2.604
    6POPC   CN1  261   3.513   1.449   0.182
    6POPC   CN2  262   3.509   1.342   0.395
    6POPC   CN3  263   3.487   1.216   0.194
    6POPC   NTM  264   3.451   1.343   0.260
    6POPC    CA  265   3.304   1.369   0.271
    6POPC    CB  266   3.211   1.248   0.294
    6POPC    OA  267   3.271   1.162   0.390
    6POPC     P  268   3.224   1.012   0.396
    6POPC    OB  269   3.339   0.942   0.336
    6POPC    OC  270   3.099   1.009   0.320
    6POPC    OD  271   3.211   0.991   0.552
    6POPC    CC  272   3.177   1.099   0.641
    6POPC    CD  273   3.297   1.177   0.701
    6POPC    OE  274   3.371   1.105   0.802
    6POPC   C1A  275   3.494   1.149   0.829
    6POPC    OF  276   3.545   1.231   0.753
    6POPC   C1B  277   3.563   1.072   0.935
    6POPC   C1C  278   3.670   1.143   1.017
    6POPC   C1D  279   3.620   1.171   1.160
    6POPC   C1E  280   3.723   1.154   1.273
    6POPC   C1F  281   3.851   1.238   1.267
    6POPC   C1G  282   3.956   1.212   1.377
    6POPC   C1H  283   3.915   1.239   1.522
    6POPC   C1I  284   4.038   1.227   1.613
    6POPC   C1J  285   4.038   1.205   1.744
    6POPC   C1K  286   3.913   1.191   1.829
    6POPC   C1L  287   3.943   1.189   1.979
    6POPC   C1M  288   3.845   1.277   2.058
    6POPC   C1N  289   3.864   1.286   2.210
    6POPC   C1O  290   3.927   1.165   2.280
    6POPC   C1P  291   3.956   1.190   2.429
    6POPC   C1Q  292   3.828   1.219   2.508
    6POPC   C1R  293   3.856   1.253   2.654
    6POPC    CE  294   3.250   1.318   0.744
    6POPC    OG  295   3.168   1.326   0.861
    6POPC   C2A  296   3.230   1.343   0.977
    6POPC    OH  297   3.346   1.384   0.983
    6POPC   C2B  298   3.138   1.328   1.092
    6POPC   C2C  299   3.206   1.279   1.221
    6POPC   C2D  300   3.098   1.236   1.321
    6POPC   C2E  301   3.152   1.197   1.458
    6POPC   C2F  302   3.046   1.113   1.530
    6POPC   C2G  303   3.076   1.078   1.675
    6POPC   C2H  304   2.990   0.958   1.720
    6POPC   C2I  305   2.999   0.934   1.871
    6POPC   C2J  306   2.927   0.809   1.925
    6POPC   C2K  307   2.939   0.808   2.078
    6POPC   C2L  308   2.867   0.694   2.152
    6POPC   C2M  309   2.960   0.590   2.215
    6POPC   C2N  310   2.920   0.561   2.360
    6POPC   C2O  311   3.000   0.450   2.428
    6POPC   C2P  312   2.964   0.438   2.576
    7POPC   CN1  313   4.594   1.393   0.285
    7POPC   CN2  314   4.544   1.595   0.389
    7POPC   CN3  315   4.570   1.586   0.146
    7POPC   NTM  316   4.619   1.537   0.276
    7POPC    CA  317   4.764   1.561   0.294
    7POPC    CB  318   4.821   1.702   0.264
    7POPC    OA  319   4.745   1.803   0.330
    7POPC     P  320   4.829   1.925   0.390
    7POPC    OB  321   4.716   2.002   0.440
    7POPC    OC  322   4.888   1.957   0.259
    7POPC    OD  323   4.914   1.824   0.478
    7POPC    CC  324   4.885   1.817   0.619
    7POPC    CD  325   4.774   1.723   0.667
    7POPC    OE  326   4.692   1.792   0.761
    7POPC   C1A  327   4.564   1.763   0.764
    7POPC    OF  328   4.512   1.707   0.664
    7POPC   C1B  329   4.501   1.818   0.884
    7POPC   C1C  330   4.380   1.736   0.926
    7POPC   C1D  331   4.389   1.696   1.073
    7POPC   C1E  332   4.248   1.677   1.130
    7POPC   C1F  333   4.254   1.647   1.279
    7POPC   C1G  334   4.119   1.624   1.347
    7POPC   C1H  335   4.140   1.571   1.489
    7POPC   C1I  336   4.024   1.604   1.583
    7POPC   C1J  337   4.033   1.587   1.716
    7POPC   C1K  338   4.157   1.530   1.784
    7POPC   C1L  339   4.166   1.573   1.931
    7POPC   C1M  340   4.157   1.451   2.022
    7POPC   C1N  341   4.172   1.473   2.173
    7POPC   C1O  342   4.080   1.579   2.235
    7POPC   C1P  343   4.049   1.554   2.383
    7POPC   C1Q  344   4.170   1.518   2.470
    7POPC   C1R  345   4.134   1.494   2.616
    7POPC    CE  346   4.825   1.584   0.710
    7POPC    OG  347   4.920   1.573   0.816
    7POPC   C2A  348   4.873   1.544   0.938
    7POPC    OH  349   4.757   1.504   0.952
    7POPC   C2B  350   4.980   1.547   1.041
    7POPC   C2C  351   4.936   1.549   1.189
    7POPC   C2D  352   5.056   1.586   1.278
    7POPC   C2E  353   5.028   1.572   1.429
    7POPC   C2F  354   5.125   1.653   1.517
    7POPC   C2G  355   5.099   1.638   1.668
    7POPC   C2H  356   5.137   1.764   1.748
    7POPC   C2I  357   5.119   1.753   1.900
    7POPC   C2J  358   5.121   1.891   1.968
    7POPC   C2K  359   5.095   1.893   2.120
    7POPC   C2L  360   5.076   2.033   2.178
    7POPC   C2M  361   5.020   2.040   2.321
    7POPC   C2N  362   5.110   2.078   2.438
    7POPC   C2O  363   5.068   2.207   2.509
    7POPC   C2P  364   5.109   2.207   2.657
    8POPC   CN1  365   5.673   1.172   0.223
    8POPC   CN2  366   5.515   1.145   0.389
    8POPC   CN3  367   5.476   1.049   0.172
    8POPC   NTM  368   5.530   1.165   0.243
    8POPC    CA  369   5.481   1.292   0.187
    8POPC    CB  370   5.335   1.335   0.211
    8POPC    OA  371   5.323   1.393   0.339
    8POPC     P  372   5.188   1.363   0.412
    8POPC    OB  373   5.194   1.216   0.409
    8POPC    OC  374   5.099   1.427   0.313
    8POPC    OD  375   5.206   1.458   0.535
    8POPC    CC  376   5.331   1.480   0.605
    8POPC    CD  377   5.416   1.367   0.665
    8POPC    OE  378   5.350   1.297   0.772
    8POPC   C1A  379   5.397   1.179   0.812
    8POPC    OF  380   5.471   1.118   0.734
    8POPC   C1B  381   5.313   1.123   0.921
    8POPC   C1C  382   5.387   1.047   1.031
    8POPC   C1D  383   5.448   1.136   1.141
    8POPC   C1E  384   5.490   1.042   1.254
    8POPC   C1F  385   5.568   1.099   1.372
    8POPC   C1G  386   5.613   0.978   1.453
    8POPC   C1H  387   5.679   1.003   1.588
    8POPC   C1I  388   5.703   0.868   1.657
    8POPC   C1J  389   5.689   0.858   1.788
    8POPC   C1K  390   5.646   0.985   1.863
    8POPC   C1L  391   5.676   0.985   2.013
    8POPC   C1M  392   5.826   0.990   2.045
    8POPC   C1N  393   5.862   1.034   2.187
    8POPC   C1O  394   5.776   0.968   2.296
    8POPC   C1P  395   5.836   0.983   2.436
    8POPC   C1Q  396   5.873   1.127   2.475
    8POPC   C1R  397   5.940   1.129   2.613
    8POPC    CE  398   5.555   1.428   0.694
    8POPC    OG  399   5.560   1.545   0.778
    8POPC   C2A  400   5.598   1.521   0.904
    8POPC    OH  401   5.631   1.408   0.938
    8POPC   C2B  402   5.599   1.637   0.994
    8POPC   C2C  403   5.581   1.588   1.138
    8POPC   C2D  404   5.574   1.701   1.240
    8POPC   C2E  405   5.550   1.645   1.380
    8POPC   C2F  406   5.536   1.758   1.482
    8POPC   C2G  407   5.520   1.698   1.621
    8POPC   C2H  408   5.516   1.803   1.732
    8POPC   C2I  409   5.499   1.728   1.864
    8POPC   C2J  410   5.495   1.817   1.988
    8POPC   C2K  411   5.441   1.734   2.104
    8POPC   C2L  412   5.431   1.811   2.236
    8POPC   C2M  413   5.341   1.737   2.335
    8POPC   C2N  414   5.337   1.810   2.469
    8POPC   C2O  415   5.232   1.750   2.563
    8POPC   C2P  416   5.227   1.828   2.694
    9POPC   CN1  417   0.879   1.050   0.315
    9POPC   CN2  418   1.075   0.979   0.423
    9POPC   CN3  419   1.074   0.986   0.185
    9POPC   NTM  420   0.991   0.957   0.303
    9POPC    CA  421   0.937   0.818   0.294
    9POPC    CB  422   1.033   0.699   0.277
    9POPC    OA  423   1.114   0.694   0.391
    9POPC     P  424   1.239   0.597   0.384
    9POPC    OB  425   1.318   0.694   0.306
    9POPC    OC  426   1.172   0.483   0.321
    9POPC    OD  427   1.265   0.591   0.539
    9POPC    CC  428   1.159   0.581   0.636
    9POPC    CD  429   1.124   0.718   0.697
    9POPC    OE  430   1.222   0.767   0.789
    9POPC   C1A  431   1.253   0.895   0.788
    9POPC    OF  432   1.225   0.965   0.689
    9POPC   C1B  433   1.332   0.929   0.907
    9POPC   C1C  434   1.284   1.055   0.978
    9POPC   C1D  435   1.285   1.036   1.130
    9POPC   C1E  436   1.311   1.154   1.227
    9POPC   C1F  437   1.270   1.301   1.211
    9POPC   C1G  438   1.316   1.388   1.330
    9POPC   C1H  439   1.257   1.352   1.468
    9POPC   C1I  440   1.272   1.467   1.568
    9POPC   C1J  441   1.278   1.454   1.701
    9POPC   C1K  442   1.274   1.319   1.773
    9POPC   C1L  443   1.313   1.322   1.921
    9POPC   C1M  444   1.213   1.400   2.006
    9POPC   C1N  445   1.224   1.378   2.157
    9POPC   C1O  446   1.359   1.421   2.214
    9POPC   C1P  447   1.365   1.420   2.367
    9POPC   C1Q  448   1.320   1.290   2.434
    9POPC   C1R  449   1.322   1.307   2.586
    9POPC    CE  450   0.981   0.717   0.754
    9POPC    OG  451   0.952   0.641   0.872
    9POPC   C2A  452   0.969   0.705   0.989
    9POPC    OH  453   0.958   0.827   0.991
    9POPC   C2B  454   0.955   0.615   1.106
    9POPC   C2C  455   1.052   0.650   1.220
    9POPC   C2D  456   1.027   0.561   1.343
    9POPC   C2E  457   1.124   0.596   1.456
    9POPC   C2F  458   1.095   0.522   1.587
    9POPC   C2G  459   1.197   0.565   1.693
    9POPC   C2H  460   1.178   0.502   1.831
    9POPC   C2I  461   1.300   0.537   1.917
    9POPC   C2J  462   1.303   0.472   2.056
    9POPC   C2K  463   1.442   0.491   2.117
    9POPC   C2L  464   1.458   0.419   2.252
    9POPC   C2M  465   1.600   0.430   2.306
    9POPC   C2N  466   1.613   0.350   2.436
    9POPC   C2O  467   1.751   0.361   2.500
    9POPC   C2P  468   1.758   0.275   2.626
   10POPC   CN1  469   6.062   4.631   0.332
   10POPC   CN2  470   5.899   4.497   0.433
   10POPC   CN3  471   5.916   4.503   0.192
   10POPC   NTM  472   5.925   4.582   0.316
   10POPC    CA  473   5.829   4.696   0.309
   10POPC    CB  474   5.678   4.670   0.292
   10POPC    OA  475   5.624   4.603   0.404
   10POPC     P  476   5.467   4.585   0.398
   10POPC    OB  477   5.454   4.467   0.313
   10POPC    OC  478   5.421   4.714   0.344
   10POPC    OD  479   5.428   4.561   0.548
   10POPC    CC  480   5.501   4.627   0.652
   10POPC    CD  481   5.617   4.543   0.711
   10POPC    OE  482   5.566   4.436   0.791
   10POPC   C1A  483   5.646   4.341   0.837
   10POPC    OF  484   5.767   4.349   0.817
   10POPC   C1B  485   5.569   4.239   0.910
   10POPC   C1C  486   5.652   4.131   0.976
   10POPC   C1D  487   5.739   4.179   1.091
   10POPC   C1E  488   5.784   4.054   1.164
   10POPC   C1F  489   5.907   4.072   1.251
   10POPC   C1G  490   5.880   3.995   1.378
   10POPC   C1H  491   5.963   4.039   1.498
   10POPC   C1I  492   5.969   3.909   1.574
   10POPC   C1J  493   5.962   3.872   1.700
   10POPC   C1K  494   5.942   3.964   1.817
   10POPC   C1L  495   5.893   3.875   1.929
   10POPC   C1M  496   6.000   3.880   2.035
   10POPC   C1N  497   5.961   3.923   2.175
   10POPC   C1O  498   5.881   3.828   2.263
   10POPC   C1P  499   5.929   3.862   2.403
   10POPC   C1Q  500   5.843   3.810   2.518
   10POPC   C1R  501   5.902   3.865   2.648
   10POPC    CE  502   5.717   4.639   0.779
   10POPC    OG  503   5.671   4.710   0.894
   10POPC   C2A  504   5.706   4.654   1.010
   10POPC    OH  505   5.813   4.595   1.019
   10POPC   C2B  506   5.633   4.713   1.125
   10POPC   C2C  507   5.596   4.609   1.230
   10POPC   C2D  508   5.529   4.679   1.348
   10POPC   C2E  509   5.480   4.579   1.453
   10POPC   C2F  510   5.417   4.650   1.572
   10POPC   C2G  511   5.360   4.546   1.668
   10POPC   C2H  512   5.295   4.607   1.793
   10POPC   C2I  513   5.237   4.491   1.875
   10POPC   C2J  514   5.174   4.530   2.008
   10POPC   C2K  515   5.130   4.400   2.077
   10POPC   C2L  516   5.069   4.420   2.216
   10POPC   C2M  517   5.031   4.284   2.275
   10POPC   C2N  518   4.977   4.297   2.418
   10POPC   C2O  519   4.934   4.163   2.475
   10POPC   C2P  520   4.890   4.178   2.621
   11POPC   CN1  521   5.473   2.548   0.202
   11POPC   CN2  522   5.314   2.596   0.372
   11POPC   CN3  523   5.240   2.566   0.147
   11POPC   NTM  524   5.348   2.619   0.230
   11POPC    CA  525   5.377   2.761   0.199
   11POPC    CB  526   5.267   2.866   0.217
   11POPC    OA  527   5.229   2.869   0.353
   11POPC     P  528   5.097   2.951   0.375
   11POPC    OB  529   5.009   2.850   0.312
   11POPC    OC  530   5.131   3.071   0.298
   11POPC    OD  531   5.086   2.957   0.531
   11POPC    CC  532   5.204   2.969   0.611
   11POPC    CD  533   5.250   2.831   0.664
   11POPC    OE  534   5.169   2.784   0.773
   11POPC   C1A  535   5.142   2.655   0.777
   11POPC    OF  536   5.172   2.582   0.681
   11POPC   C1B  537   5.074   2.620   0.903
   11POPC   C1C  538   5.131   2.490   0.958
   11POPC   C1D  539   5.181   2.508   1.100
   11POPC   C1E  540   5.185   2.370   1.166
   11POPC   C1F  541   5.209   2.383   1.316
   11POPC   C1G  542   5.159   2.257   1.386
   11POPC   C1H  543   5.185   2.271   1.536
   11POPC   C1I  544   5.143   2.146   1.613
   11POPC   C1J  545   5.133   2.157   1.745
   11POPC   C1K  546   5.169   2.290   1.814
   11POPC   C1L  547   5.218   2.280   1.959
   11POPC   C1M  548   5.331   2.176   1.979
   11POPC   C1N  549   5.419   2.181   2.105
   11POPC   C1O  550   5.363   2.243   2.233
   11POPC   C1P  551   5.453   2.207   2.351
   11POPC   C1Q  552   5.424   2.292   2.475
   11POPC   C1R  553   5.485   2.231   2.600
   11POPC    CE  554   5.401   2.832   0.693
   11POPC    OG  555   5.443   2.896   0.814
   11POPC   C2A  556   5.438   2.821   0.924
   11POPC    OH  557   5.457   2.699   0.916
   11POPC   C2B  558   5.453   2.902   1.047
   11POPC   C2C  559   5.392   2.837   1.171
   11POPC   C2D  560   5.408   2.931   1.290
   11POPC   C2E  561   5.343   2.879   1.418
   11POPC   C2F  562   5.278   2.997   1.491
   11POPC   C2G  563   5.251   2.969   1.639
   11POPC   C2H  564   5.214   3.097   1.715
   11POPC   C2I  565   5.206   3.069   1.865
   11POPC   C2J  566   5.199   3.195   1.951
   11POPC   C2K  567   5.186   3.151   2.097
   11POPC   C2L  568   5.173   3.267   2.195
   11POPC   C2M  569   5.108   3.214   2.323
   11POPC   C2N  570   5.091   3.322   2.429
   11POPC   C2O  571   5.016   3.265   2.550
   11POPC   C2P  572   5.007   3.368   2.662
   12POPC   CN1  573   0.610   2.978   0.180
   12POPC   CN2  574   0.742   3.026   0.378
   12POPC   CN3  575   0.832   3.072   0.160
   12POPC   NTM  576   0.744   2.982   0.236
   12POPC    CA  577   0.789   2.841   0.227
   12POPC    CB  578   0.938   2.809   0.244
   12POPC    OA  579   0.976   2.866   0.366
   12POPC     P  580   1.129   2.892   0.390
   12POPC    OB  581   1.114   3.023   0.324
   12POPC    OC  582   1.183   2.775   0.320
   12POPC    OD  583   1.117   2.886   0.547
   12POPC    CC  584   1.021   2.806   0.619
   12POPC    CD  585   0.906   2.893   0.676
   12POPC    OE  586   0.957   2.973   0.783
   12POPC   C1A  587   0.903   3.087   0.821
   12POPC    OF  588   0.828   3.146   0.741
   12POPC   C1B  589   0.983   3.133   0.935
   12POPC   C1C  590   0.917   3.208   1.050
   12POPC   C1D  591   0.801   3.145   1.128
   12POPC   C1E  592   0.768   3.246   1.237
   12POPC   C1F  593   0.645   3.219   1.322
   12POPC   C1G  594   0.623   3.342   1.411
   12POPC   C1H  595   0.574   3.304   1.551
   12POPC   C1I  596   0.548   3.429   1.635
   12POPC   C1J  597   0.586   3.435   1.763
   12POPC   C1K  598   0.660   3.316   1.824
   12POPC   C1L  599   0.655   3.308   1.978
   12POPC   C1M  600   0.517   3.271   2.032
   12POPC   C1N  601   0.516   3.223   2.178
   12POPC   C1O  602   0.575   3.325   2.275
   12POPC   C1P  603   0.513   3.322   2.414
   12POPC   C1Q  604   0.547   3.198   2.498
   12POPC   C1R  605   0.492   3.215   2.639
   12POPC    CE  606   0.788   2.803   0.716
   12POPC    OG  607   0.815   2.713   0.824
   12POPC   C2A  608   0.814   2.769   0.945
   12POPC    OH  609   0.743   2.867   0.968
   12POPC   C2B  610   0.881   2.686   1.048
   12POPC   C2C  611   0.838   2.723   1.189
   12POPC   C2D  612   0.892   2.619   1.287
   12POPC   C2E  613   0.870   2.667   1.430
   12POPC   C2F  614   0.937   2.570   1.527
   12POPC   C2G  615   0.942   2.633   1.666
   12POPC   C2H  616   1.016   2.543   1.765
   12POPC   C2I  617   1.037   2.619   1.895
   12POPC   C2J  618   1.115   2.537   1.998
   12POPC   C2K  619   1.151   2.627   2.116
   12POPC   C2L  620   1.228   2.551   2.224
   12POPC   C2M  621   1.273   2.649   2.333
   12POPC   C2N  622   1.337   2.575   2.450
   12POPC   C2O  623   1.381   2.675   2.557
   12POPC   C2P  624   1.432   2.602   2.682
   13POPC   CN1  625   3.276   2.207   0.186
   13POPC   CN2  626   3.305   2.365   0.363
   13POPC   CN3  627   3.239   2.439   0.137
   13POPC   NTM  628   3.318   2.344   0.216
   13POPC    CA  629   3.455   2.369   0.167
   13POPC    CB  630   3.515   2.508   0.192
   13POPC    OA  631   3.550   2.526   0.329
   13POPC     P  632   3.540   2.682   0.372
   13POPC    OB  633   3.395   2.683   0.341
   13POPC    OC  634   3.640   2.714   0.270
   13POPC    OD  635   3.570   2.656   0.523
   13POPC    CC  636   3.650   2.553   0.580
   13POPC    CD  637   3.563   2.447   0.650
   13POPC    OE  638   3.493   2.494   0.766
   13POPC   C1A  639   3.400   2.415   0.816
   13POPC    OF  640   3.335   2.342   0.738
   13POPC   C1B  641   3.380   2.447   0.958
   13POPC   C1C  642   3.274   2.364   1.028
   13POPC   C1D  643   3.337   2.289   1.143
   13POPC   C1E  644   3.240   2.285   1.259
   13POPC   C1F  645   3.297   2.191   1.365
   13POPC   C1G  646   3.212   2.189   1.491
   13POPC   C1H  647   3.267   2.085   1.588
   13POPC   C1I  648   3.160   2.024   1.677
   13POPC   C1J  649   3.166   2.034   1.809
   13POPC   C1K  650   3.283   2.107   1.874
   13POPC   C1L  651   3.313   2.066   2.019
   13POPC   C1M  652   3.336   1.915   2.035
   13POPC   C1N  653   3.388   1.875   2.174
   13POPC   C1O  654   3.304   1.931   2.289
   13POPC   C1P  655   3.332   1.865   2.424
   13POPC   C1Q  656   3.478   1.876   2.468
   13POPC   C1R  657   3.497   1.822   2.610
   13POPC    CE  658   3.643   2.317   0.675
   13POPC    OG  659   3.769   2.303   0.741
   13POPC   C2A  660   3.758   2.275   0.872
   13POPC    OH  661   3.653   2.226   0.913
   13POPC   C2B  662   3.886   2.274   0.947
   13POPC   C2C  663   3.870   2.281   1.099
   13POPC   C2D  664   4.000   2.304   1.178
   13POPC   C2E  665   3.967   2.331   1.325
   13POPC   C2F  666   4.079   2.371   1.421
   13POPC   C2G  667   4.013   2.404   1.556
   13POPC   C2H  668   4.111   2.424   1.671
   13POPC   C2I  669   4.034   2.435   1.804
   13POPC   C2J  670   4.127   2.464   1.921
   13POPC   C2K  671   4.050   2.492   2.051
   13POPC   C2L  672   4.122   2.601   2.131
   13POPC   C2M  673   4.074   2.614   2.276
   13POPC   C2N  674   4.164   2.710   2.354
   13POPC   C2O  675   4.128   2.710   2.503
   13POPC   C2P  676   4.229   2.788   2.587
   14POPC   CN1  677   4.904   1.177   0.261
   14POPC   CN2  678   4.918   1.001   0.416
   14POPC   CN3  679   5.017   0.975   0.203
   14POPC   NTM  680   4.901   1.032   0.273
   14POPC    CA  681   4.776   0.989   0.208
   14POPC    CB  682   4.728   0.844   0.220
   14POPC    OA  683   4.690   0.818   0.354
   14POPC     P  684   4.692   0.662   0.384
   14POPC    OB  685   4.832   0.643   0.340
   14POPC    OC  686   4.576   0.638   0.296
   14POPC    OD  687   4.672   0.667   0.539
   14POPC    CC  688   4.592   0.764   0.608
   14POPC    CD  689   4.679   0.878   0.665
   14POPC    OE  690   4.738   0.844   0.790
   14POPC   C1A  691   4.849   0.907   0.827
   14POPC    OF  692   4.913   0.972   0.744
   14POPC   C1B  693   4.881   0.862   0.964
   14POPC   C1C  694   4.993   0.933   1.037
   14POPC   C1D  695   4.929   1.022   1.141
   14POPC   C1E  696   5.032   1.053   1.248
   14POPC   C1F  697   4.967   1.136   1.357
   14POPC   C1G  698   5.072   1.165   1.464
   14POPC   C1H  699   5.008   1.238   1.581
   14POPC   C1I  700   5.117   1.275   1.681
   14POPC   C1J  701   5.093   1.253   1.810
   14POPC   C1K  702   4.958   1.194   1.851
   14POPC   C1L  703   4.937   1.197   2.002
   14POPC   C1M  704   4.928   1.340   2.054
   14POPC   C1N  705   4.894   1.344   2.203
   14POPC   C1O  706   5.014   1.325   2.296
   14POPC   C1P  707   4.988   1.386   2.434
   14POPC   C1Q  708   4.867   1.325   2.506
   14POPC   C1R  709   4.836   1.398   2.637
   14POPC    CE  710   4.601   1.011   0.668
   14POPC    OG  711   4.494   1.024   0.761
   14POPC   C2A  712   4.534   1.054   0.885
   14POPC    OH  713   4.625   1.135   0.898
   14POPC   C2B  714   4.437   1.012   0.989
   14POPC   C2C  715   4.483   1.005   1.136
   14POPC   C2D  716   4.361   0.979   1.226
   14POPC   C2E  717   4.383   0.995   1.378
   14POPC   C2F  718   4.264   0.949   1.463
   14POPC   C2G  719   4.290   0.962   1.614
   14POPC   C2H  720   4.191   0.881   1.699
   14POPC   C2I  721   4.206   0.899   1.851
   14POPC   C2J  722   4.092   0.832   1.929
   14POPC   C2K  723   4.095   0.862   2.080
   14POPC   C2L  724   3.975   0.813   2.163
   14POPC   C2M  725   3.984   0.671   2.222
   14POPC   C2N  726   3.935   0.661   2.367
   14POPC   C2O  727   3.957   0.525   2.433
   14POPC   C2P  728   3.938   0.531   2.585
   15POPC   CN1  729   0.439   3.749   0.269
   15POPC   CN2  730   0.313   3.883   0.402
   15POPC   CN3  731   0.264   3.862   0.161
   15POPC   NTM  732   0.366   3.873   0.264
   15POPC    CA  733   0.471   3.971   0.227
   15POPC    CB  734   0.442   4.121   0.225
   15POPC    OA  735   0.384   4.151   0.350
   15POPC     P  736   0.350   4.300   0.381
   15POPC    OB  737   0.208   4.284   0.345
   15POPC    OC  738   0.438   4.375   0.291
   15POPC    OD  739   0.384   4.296   0.535
   15POPC    CC  740   0.504   4.234   0.585
   15POPC    CD  741   0.480   4.102   0.661
   15POPC    OE  742   0.394   4.122   0.775
   15POPC   C1A  743   0.301   4.033   0.805
   15POPC    OF  744   0.274   3.942   0.724
   15POPC   C1B  745   0.222   4.082   0.919
   15POPC   C1C  746   0.236   4.004   1.049
   15POPC   C1D  747   0.372   3.986   1.117
   15POPC   C1E  748   0.341   3.909   1.245
   15POPC   C1F  749   0.451   3.848   1.332
   15POPC   C1G  750   0.377   3.761   1.433
   15POPC   C1H  751   0.423   3.774   1.578
   15POPC   C1I  752   0.315   3.711   1.666
   15POPC   C1J  753   0.297   3.740   1.794
   15POPC   C1K  754   0.388   3.835   1.872
   15POPC   C1L  755   0.381   3.814   2.024
   15POPC   C1M  756   0.436   3.678   2.069
   15POPC   C1N  757   0.475   3.674   2.217
   15POPC   C1O  758   0.364   3.717   2.314
   15POPC   C1P  759   0.398   3.679   2.459
   15POPC   C1Q  760   0.533   3.731   2.510
   15POPC   C1R  761   0.565   3.667   2.646
   15POPC    CE  762   0.614   4.032   0.693
   15POPC    OG  763   0.701   4.101   0.783
   15POPC   C2A  764   0.706   4.053   0.907
   15POPC    OH  765   0.656   3.944   0.936
   15POPC   C2B  766   0.787   4.138   0.998
   15POPC   C2C  767   0.739   4.127   1.143
   15POPC   C2D  768   0.808   4.230   1.232
   15POPC   C2E  769   0.760   4.214   1.377
   15POPC   C2F  770   0.807   4.331   1.463
   15POPC   C2G  771   0.761   4.311   1.608
   15POPC   C2H  772   0.793   4.435   1.692
   15POPC   C2I  773   0.758   4.412   1.839
   15POPC   C2J  774   0.798   4.531   1.925
   15POPC   C2K  775   0.737   4.516   2.065
   15POPC   C2L  776   0.772   4.634   2.156
   15POPC   C2M  777   0.683   4.632   2.280
   15POPC   C2N  778   0.723   4.743   2.377
   15POPC   C2O  779   0.630   4.751   2.498
   15POPC   C2P  780   0.682   4.855   2.597
   16POPC   CN1  781   5.475   3.659   0.235
   16POPC   CN2  782   5.371   3.530   0.403
   16POPC   CN3  783   5.310   3.490   0.177
   16POPC   NTM  784   5.349   3.595   0.272
   16POPC    CA  785   5.250   3.706   0.282
   16POPC    CB  786   5.099   3.677   0.285
   16POPC    OA  787   5.083   3.577   0.382
   16POPC     P  788   4.944   3.507   0.392
   16POPC    OB  789   4.991   3.375   0.348
   16POPC    OC  790   4.858   3.579   0.297
   16POPC    OD  791   4.908   3.513   0.545
   16POPC    CC  792   4.973   3.607   0.632
   16POPC    CD  793   5.111   3.562   0.684
   16POPC    OE  794   5.101   3.449   0.773
   16POPC   C1A  795   5.205   3.368   0.788
   16POPC    OF  796   5.304   3.377   0.715
   16POPC   C1B  797   5.170   3.256   0.879
   16POPC   C1C  798   5.277   3.228   0.984
   16POPC   C1D  799   5.285   3.334   1.094
   16POPC   C1E  800   5.395   3.290   1.190
   16POPC   C1F  801   5.406   3.368   1.321
   16POPC   C1G  802   5.517   3.298   1.398
   16POPC   C1H  803   5.500   3.287   1.550
   16POPC   C1I  804   5.573   3.159   1.590
   16POPC   C1J  805   5.595   3.110   1.711
   16POPC   C1K  806   5.553   3.180   1.839
   16POPC   C1L  807   5.615   3.115   1.963
   16POPC   C1M  808   5.578   3.204   2.081
   16POPC   C1N  809   5.662   3.180   2.207
   16POPC   C1O  810   5.596   3.079   2.300
   16POPC   C1P  811   5.650   3.093   2.442
   16POPC   C1Q  812   5.606   3.224   2.508
   16POPC   C1R  813   5.677   3.250   2.640
   16POPC    CE  814   5.183   3.685   0.741
   16POPC    OG  815   5.119   3.737   0.857
   16POPC   C2A  816   5.154   3.681   0.972
   16POPC    OH  817   5.269   3.641   0.989
   16POPC   C2B  818   5.054   3.710   1.076
   16POPC   C2C  819   5.110   3.702   1.218
   16POPC   C2D  820   5.005   3.756   1.314
   16POPC   C2E  821   5.041   3.714   1.455
   16POPC   C2F  822   4.932   3.759   1.552
   16POPC   C2G  823   4.955   3.688   1.685
   16POPC   C2H  824   4.850   3.728   1.788
   16POPC   C2I  825   4.867   3.636   1.909
   16POPC   C2J  826   4.765   3.665   2.018
   16POPC   C2K  827   4.778   3.554   2.121
   16POPC   C2L  828   4.684   3.574   2.240
   16POPC   C2M  829   4.708   3.459   2.337
   16POPC   C2N  830   4.632   3.482   2.467
   16POPC   C2O  831   4.657   3.370   2.567
   16POPC   C2P  832   4.596   3.401   2.703
   17POPC   CN1  833   1.948   2.107   0.313
   17POPC   CN2  834   2.146   2.066   0.425
   17POPC   CN3  835   2.146   2.064   0.180
   17POPC   NTM  836   2.074   2.032   0.303
   17POPC    CA  837   2.049   1.887   0.311
   17POPC    CB  838   2.165   1.785   0.293
   17POPC    OA  839   2.287   1.810   0.364
   17POPC     P  840   2.357   1.673   0.414
   17POPC    OB  841   2.496   1.711   0.405
   17POPC    OC  842   2.309   1.582   0.310
   17POPC    OD  843   2.333   1.658   0.567
   17POPC    CC  844   2.230   1.711   0.651
   17POPC    CD  845   2.237   1.860   0.691
   17POPC    OE  846   2.358   1.907   0.755
   17POPC   C1A  847   2.389   2.036   0.757
   17POPC    OF  848   2.371   2.100   0.651
   17POPC   C1B  849   2.489   2.065   0.863
   17POPC   C1C  850   2.477   2.194   0.945
   17POPC   C1D  851   2.394   2.185   1.074
   17POPC   C1E  852   2.444   2.291   1.172
   17POPC   C1F  853   2.369   2.325   1.301
   17POPC   C1G  854   2.462   2.422   1.376
   17POPC   C1H  855   2.431   2.452   1.523
   17POPC   C1I  856   2.532   2.553   1.577
   17POPC   C1J  857   2.578   2.546   1.702
   17POPC   C1K  858   2.528   2.434   1.793
   17POPC   C1L  859   2.536   2.460   1.944
   17POPC   C1M  860   2.436   2.563   1.996
   17POPC   C1N  861   2.421   2.559   2.149
   17POPC   C1O  862   2.556   2.556   2.223
   17POPC   C1P  863   2.548   2.591   2.372
   17POPC   C1Q  864   2.470   2.493   2.458
   17POPC   C1R  865   2.465   2.546   2.602
   17POPC    CE  866   2.107   1.884   0.770
   17POPC    OG  867   2.100   1.828   0.902
   17POPC   C2A  868   2.140   1.907   1.001
   17POPC    OH  869   2.149   2.028   0.981
   17POPC   C2B  870   2.140   1.841   1.134
   17POPC   C2C  871   2.253   1.887   1.226
   17POPC   C2D  872   2.314   1.774   1.311
   17POPC   C2E  873   2.277   1.776   1.461
   17POPC   C2F  874   2.352   1.669   1.542
   17POPC   C2G  875   2.330   1.687   1.693
   17POPC   C2H  876   2.385   1.573   1.779
   17POPC   C2I  877   2.425   1.628   1.916
   17POPC   C2J  878   2.466   1.524   2.021
   17POPC   C2K  879   2.551   1.593   2.129
   17POPC   C2L  880   2.586   1.501   2.245
   17POPC   C2M  881   2.695   1.564   2.332
   17POPC   C2N  882   2.722   1.481   2.458
   17POPC   C2O  883   2.838   1.540   2.539
   17POPC   C2P  884   2.854   1.467   2.672
   18POPC   CN1  885   1.407   1.792   0.239
   18POPC   CN2  886   1.580   1.784   0.393
   18POPC   CN3  887   1.629   1.851   0.167
   18POPC   NTM  888   1.549   1.760   0.250
   18POPC    CA  889   1.566   1.619   0.207
   18POPC    CB  890   1.703   1.550   0.214
   18POPC    OA  891   1.743   1.535   0.348
   18POPC     P  892   1.893   1.567   0.388
   18POPC    OB  893   1.883   1.702   0.443
   18POPC    OC  894   1.957   1.558   0.255
   18POPC    OD  895   1.910   1.449   0.486
   18POPC    CC  896   1.813   1.422   0.589
   18POPC    CD  897   1.727   1.522   0.671
   18POPC    OE  898   1.793   1.587   0.782
   18POPC   C1A  899   1.734   1.691   0.838
   18POPC    OF  900   1.647   1.754   0.775
   18POPC   C1B  901   1.803   1.735   0.962
   18POPC   C1C  902   1.724   1.827   1.055
   18POPC   C1D  903   1.623   1.752   1.141
   18POPC   C1E  904   1.574   1.846   1.251
   18POPC   C1F  905   1.490   1.774   1.356
   18POPC   C1G  906   1.452   1.876   1.463
   18POPC   C1H  907   1.384   1.813   1.584
   18POPC   C1I  908   1.355   1.924   1.685
   18POPC   C1J  909   1.368   1.906   1.816
   18POPC   C1K  910   1.407   1.770   1.875
   18POPC   C1L  911   1.403   1.765   2.029
   18POPC   C1M  912   1.273   1.821   2.088
   18POPC   C1N  913   1.238   1.779   2.231
   18POPC   C1O  914   1.349   1.800   2.335
   18POPC   C1P  915   1.303   1.796   2.481
   18POPC   C1Q  916   1.208   1.682   2.519
   18POPC   C1R  917   1.193   1.665   2.671
   18POPC    CE  918   1.593   1.453   0.708
   18POPC    OG  919   1.582   1.317   0.756
   18POPC   C2A  920   1.571   1.304   0.890
   18POPC    OH  921   1.522   1.396   0.955
   18POPC   C2B  922   1.596   1.166   0.942
   18POPC   C2C  923   1.602   1.161   1.096
   18POPC   C2D  924   1.661   1.049   1.185
   18POPC   C2E  925   1.625   1.067   1.333
   18POPC   C2F  926   1.697   0.975   1.432
   18POPC   C2G  927   1.692   1.025   1.576
   18POPC   C2H  928   1.760   0.925   1.670
   18POPC   C2I  929   1.801   0.989   1.802
   18POPC   C2J  930   1.858   0.890   1.904
   18POPC   C2K  931   1.918   0.966   2.023
   18POPC   C2L  932   1.969   0.874   2.134
   18POPC   C2M  933   2.035   0.958   2.244
   18POPC   C2N  934   2.082   0.871   2.360
   18POPC   C2O  935   2.143   0.958   2.470
   18POPC   C2P  936   2.176   0.876   2.594
   19POPC   CN1  937   4.382   4.546   0.269
   19POPC   CN2  938   4.513   4.399   0.402
   19POPC   CN3  939   4.581   4.444   0.181
   19POPC   NTM  940   4.463   4.423   0.265
   19POPC    CA  941   4.384   4.312   0.207
   19POPC    CB  942   4.424   4.166   0.232
   19POPC    OA  943   4.399   4.129   0.367
   19POPC     P  944   4.451   3.980   0.396
   19POPC    OB  945   4.583   3.994   0.333
   19POPC    OC  946   4.334   3.928   0.324
   19POPC    OD  947   4.455   3.995   0.553
   19POPC    CC  948   4.346   4.046   0.630
   19POPC    CD  949   4.379   4.185   0.689
   19POPC    OE  950   4.473   4.181   0.798
   19POPC   C1A  951   4.559   4.281   0.811
   19POPC    OF  952   4.559   4.375   0.730
   19POPC   C1B  953   4.659   4.252   0.917
   19POPC   C1C  954   4.705   4.374   0.997
   19POPC   C1D  955   4.601   4.423   1.099
   19POPC   C1E  956   4.664   4.538   1.178
   19POPC   C1F  957   4.579   4.586   1.296
   19POPC   C1G  958   4.659   4.692   1.372
   19POPC   C1H  959   4.593   4.733   1.505
   19POPC   C1I  960   4.688   4.823   1.585
   19POPC   C1J  961   4.676   4.834   1.717
   19POPC   C1K  962   4.565   4.758   1.790
   19POPC   C1L  963   4.575   4.762   1.943
   19POPC   C1M  964   4.536   4.897   2.004
   19POPC   C1N  965   4.512   4.890   2.156
   19POPC   C1O  966   4.637   4.856   2.238
   19POPC   C1P  967   4.619   4.888   2.387
   19POPC   C1Q  968   4.499   4.817   2.451
   19POPC   C1R  969   4.490   4.846   2.601
   19POPC    CE  970   4.250   4.265   0.717
   19POPC    OG  971   4.164   4.228   0.825
   19POPC   C2A  972   4.194   4.280   0.944
   19POPC    OH  973   4.244   4.393   0.950
   19POPC   C2B  974   4.134   4.204   1.057
   19POPC   C2C  975   4.131   4.267   1.197
   19POPC   C2D  976   4.068   4.166   1.294
   19POPC   C2E  977   4.084   4.197   1.444
   19POPC   C2F  978   4.059   4.072   1.531
   19POPC   C2G  979   4.082   4.100   1.680
   19POPC   C2H  980   4.095   3.973   1.767
   19POPC   C2I  981   4.107   4.010   1.916
   19POPC   C2J  982   4.141   3.896   2.014
   19POPC   C2K  983   4.150   3.957   2.155
   19POPC   C2L  984   4.160   3.867   2.279
   19POPC   C2M  985   4.299   3.818   2.325
   19POPC   C2N  986   4.290   3.792   2.476
   19POPC   C2O  987   4.415   3.743   2.549
   19POPC   C2P  988   4.381   3.706   2.693
   20POPC   CN1  989   4.083   6.242   0.344
   20POPC   CN2  990   4.006   6.057   0.464
   20POPC   CN3  991   4.022   6.041   0.225
   20POPC   NTM  992   3.988   6.130   0.337
   20POPC    CA  993   3.851   6.187   0.327
   20POPC    CB  994   3.729   6.096   0.300
   20POPC    OA  995   3.732   5.980   0.382
   20POPC     P  996   3.595   5.907   0.404
   20POPC    OB  997   3.641   5.775   0.358
   20POPC    OC  998   3.496   5.976   0.320
   20POPC    OD  999   3.565   5.908   0.557
   20POPC    CC 1000   3.576   6.029   0.633
   20POPC    CD 1001   3.711   6.050   0.703
   20POPC    OE 1002   3.738   5.948   0.802
   20POPC   C1A 1003   3.863   5.919   0.837
   20POPC    OF 1004   3.954   5.953   0.760
   20POPC   C1B 1005   3.865   5.812   0.939
   20POPC   C1C 1006   3.978   5.814   1.043
   20POPC   C1D 1007   3.957   5.914   1.157
   20POPC   C1E 1008   4.065   5.890   1.262
   20POPC   C1F 1009   4.054   5.982   1.384
   20POPC   C1G 1010   4.162   5.942   1.485
   20POPC   C1H 1011   4.153   6.021   1.615
   20POPC   C1I 1012   4.253   5.966   1.717
   20POPC   C1J 1013   4.220   5.961   1.846
   20POPC   C1K 1014   4.084   6.014   1.892
   20POPC   C1L 1015   4.070   6.031   2.044
   20POPC   C1M 1016   4.165   6.133   2.106
   20POPC   C1N 1017   4.137   6.158   2.255
   20POPC   C1O 1018   4.162   6.035   2.343
   20POPC   C1P 1019   4.155   6.068   2.492
   20POPC   C1Q 1020   4.018   6.117   2.539
   20POPC   C1R 1021   4.021   6.154   2.687
   20POPC    CE 1022   3.717   6.196   0.749
   20POPC    OG 1023   3.623   6.230   0.851
   20POPC   C2A 1024   3.669   6.218   0.975
   20POPC    OH 1025   3.790   6.230   0.997
   20POPC   C2B 1026   3.563   6.217   1.078
   20POPC   C2C 1027   3.602   6.145   1.207
   20POPC   C2D 1028   3.484   6.153   1.305
   20POPC   C2E 1029   3.513   6.113   1.450
   20POPC   C2F 1030   3.395   6.161   1.537
   20POPC   C2G 1031   3.405   6.127   1.687
   20POPC   C2H 1032   3.277   6.162   1.764
   20POPC   C2I 1033   3.291   6.130   1.914
   20POPC   C2J 1034   3.159   6.127   1.993
   20POPC   C2K 1035   3.185   6.080   2.137
   20POPC   C2L 1036   3.063   6.052   2.227
   20POPC   C2M 1037   3.025   5.905   2.249
   20POPC   C2N 1038   2.970   5.887   2.391
   20POPC   C2O 1039   2.928   5.745   2.431
   20POPC   C2P 1040   2.881   5.744   2.577
   21POPC   CN1 1041   4.488   1.910   0.207
   21POPC   CN2 1042   4.395   2.028   0.386
   21POPC   CN3 1043   4.281   2.028   0.173
   21POPC   NTM 1044   4.412   2.028   0.239
   21POPC    CA 1045   4.499   2.138   0.191
   21POPC    CB 1046   4.440   2.279   0.193
   21POPC    OA 1047   4.455   2.337   0.320
   21POPC     P 1048   4.328   2.420   0.367
   21POPC    OB 1049   4.235   2.305   0.376
   21POPC    OC 1050   4.324   2.497   0.240
   21POPC    OD 1051   4.385   2.475   0.500
   21POPC    CC 1052   4.480   2.405   0.582
   21POPC    CD 1053   4.468   2.266   0.644
   21POPC    OE 1054   4.356   2.258   0.734
   21POPC   C1A 1055   4.307   2.139   0.764
   21POPC    OF 1056   4.318   2.047   0.681
   21POPC   C1B 1057   4.202   2.156   0.865
   21POPC   C1C 1058   4.208   2.062   0.984
   21POPC   C1D 1059   4.329   2.074   1.076
   21POPC   C1E 1060   4.286   2.027   1.214
   21POPC   C1F 1061   4.401   1.980   1.303
   21POPC   C1G 1062   4.340   1.947   1.439
   21POPC   C1H 1063   4.437   1.881   1.535
   21POPC   C1I 1064   4.363   1.788   1.631
   21POPC   C1J 1065   4.356   1.803   1.762
   21POPC   C1K 1066   4.421   1.916   1.841
   21POPC   C1L 1067   4.382   1.922   1.989
   21POPC   C1M 1068   4.412   1.795   2.068
   21POPC   C1N 1069   4.459   1.832   2.208
   21POPC   C1O 1070   4.370   1.771   2.315
   21POPC   C1P 1071   4.434   1.766   2.454
   21POPC   C1Q 1072   4.450   1.904   2.518
   21POPC   C1R 1073   4.494   1.891   2.664
   21POPC    CE 1074   4.608   2.216   0.692
   21POPC    OG 1075   4.703   2.298   0.764
   21POPC   C2A 1076   4.694   2.296   0.898
   21POPC    OH 1077   4.640   2.199   0.951
   21POPC   C2B 1078   4.779   2.397   0.969
   21POPC   C2C 1079   4.805   2.377   1.120
   21POPC   C2D 1080   4.822   2.508   1.200
   21POPC   C2E 1081   4.844   2.486   1.351
   21POPC   C2F 1082   4.849   2.613   1.438
   21POPC   C2G 1083   4.845   2.584   1.590
   21POPC   C2H 1084   4.852   2.711   1.676
   21POPC   C2I 1085   4.830   2.688   1.826
   21POPC   C2J 1086   4.832   2.816   1.911
   21POPC   C2K 1087   4.784   2.789   2.055
   21POPC   C2L 1088   4.773   2.907   2.152
   21POPC   C2M 1089   4.684   2.869   2.271
   21POPC   C2N 1090   4.692   2.965   2.390
   21POPC   C2O 1091   4.595   2.922   2.501
   21POPC   C2P 1092   4.612   3.002   2.630
   22POPC   CN1 1093   0.507   0.807   0.333
   22POPC   CN2 1094   0.322   0.889   0.451
   22POPC   CN3 1095   0.296   0.824   0.223
   22POPC   NTM 1096   0.386   0.889   0.318
   22POPC    CA 1097   0.423   1.023   0.267
   22POPC    CB 1098   0.318   1.136   0.258
   22POPC    OA 1099   0.292   1.188   0.386
   22POPC     P 1100   0.147   1.247   0.411
   22POPC    OB 1101   0.070   1.124   0.431
   22POPC    OC 1102   0.123   1.319   0.285
   22POPC    OD 1103   0.168   1.343   0.534
   22POPC    CC 1104   0.272   1.321   0.632
   22POPC    CD 1105   0.301   1.181   0.690
   22POPC    OE 1106   0.212   1.140   0.794
   22POPC   C1A 1107   0.213   1.014   0.831
   22POPC    OF 1108   0.243   0.926   0.747
   22POPC   C1B 1109   0.179   1.005   0.973
   22POPC   C1C 1110   0.186   0.869   1.040
   22POPC   C1D 1111   0.222   0.898   1.185
   22POPC   C1E 1112   0.199   0.778   1.276
   22POPC   C1F 1113   0.277   0.802   1.405
   22POPC   C1G 1114   0.247   0.691   1.505
   22POPC   C1H 1115   0.333   0.707   1.630
   22POPC   C1I 1116   0.292   0.603   1.733
   22POPC   C1J 1117   0.267   0.641   1.858
   22POPC   C1K 1118   0.284   0.787   1.900
   22POPC   C1L 1119   0.305   0.805   2.051
   22POPC   C1M 1120   0.431   0.734   2.103
   22POPC   C1N 1121   0.464   0.765   2.250
   22POPC   C1O 1122   0.354   0.720   2.347
   22POPC   C1P 1123   0.401   0.722   2.493
   22POPC   C1Q 1124   0.429   0.863   2.545
   22POPC   C1R 1125   0.482   0.858   2.688
   22POPC    CE 1126   0.450   1.176   0.726
   22POPC    OG 1127   0.498   1.276   0.817
   22POPC   C2A 1128   0.508   1.237   0.945
   22POPC    OH 1129   0.514   1.117   0.971
   22POPC   C2B 1130   0.535   1.349   1.037
   22POPC   C2C 1131   0.473   1.326   1.176
   22POPC   C2D 1132   0.487   1.450   1.264
   22POPC   C2E 1133   0.436   1.421   1.405
   22POPC   C2F 1134   0.436   1.547   1.492
   22POPC   C2G 1135   0.389   1.514   1.633
   22POPC   C2H 1136   0.375   1.640   1.719
   22POPC   C2I 1137   0.325   1.605   1.859
   22POPC   C2J 1138   0.306   1.729   1.946
   22POPC   C2K 1139   0.235   1.691   2.076
   22POPC   C2L 1140   0.210   1.813   2.165
   22POPC   C2M 1141   0.123   1.774   2.285
   22POPC   C2N 1142   0.103   1.892   2.380
   22POPC   C2O 1143   0.009   1.853   2.494
   22POPC   C2P 1144  -0.005   1.967   2.595
   23POPC   CN1 1145   2.537   4.094   0.141
   23POPC   CN2 1146   2.428   4.146   0.341
   23POPC   CN3 1147   2.322   4.183   0.119
   23POPC   NTM 1148   2.443   4.187   0.201
   23POPC    CA 1149   2.487   4.327   0.204
   23POPC    CB 1150   2.381   4.434   0.242
   23POPC    OA 1151   2.324   4.422   0.369
   23POPC     P 1152   2.212   4.531   0.390
   23POPC    OB 1153   2.123   4.496   0.279
   23POPC    OC 1154   2.284   4.658   0.380
   23POPC    OD 1155   2.162   4.493   0.532
   23POPC    CC 1156   2.268   4.498   0.629
   23POPC    CD 1157   2.296   4.368   0.704
   23POPC    OE 1158   2.198   4.362   0.808
   23POPC   C1A 1159   2.183   4.248   0.871
   23POPC    OF 1160   2.249   4.149   0.840
   23POPC   C1B 1161   2.067   4.255   0.960
   23POPC   C1C 1162   2.037   4.117   1.014
   23POPC   C1D 1163   2.113   4.097   1.143
   23POPC   C1E 1164   2.037   3.988   1.216
   23POPC   C1F 1165   2.096   3.960   1.353
   23POPC   C1G 1166   2.004   3.858   1.416
   23POPC   C1H 1167   2.057   3.811   1.551
   23POPC   C1I 1168   1.965   3.699   1.597
   23POPC   C1J 1169   1.916   3.696   1.721
   23POPC   C1K 1170   1.956   3.800   1.825
   23POPC   C1L 1171   1.927   3.754   1.969
   23POPC   C1M 1172   1.991   3.619   2.006
   23POPC   C1N 1173   2.051   3.604   2.147
   23POPC   C1O 1174   1.952   3.608   2.264
   23POPC   C1P 1175   2.007   3.568   2.401
   23POPC   C1Q 1176   2.117   3.659   2.458
   23POPC   C1R 1177   2.112   3.670   2.610
   23POPC    CE 1178   2.445   4.351   0.743
   23POPC    OG 1179   2.506   4.434   0.844
   23POPC   C2A 1180   2.501   4.389   0.970
   23POPC    OH 1181   2.441   4.286   0.999
   23POPC   C2B 1182   2.568   4.475   1.071
   23POPC   C2C 1183   2.542   4.428   1.215
   23POPC   C2D 1184   2.574   4.532   1.322
   23POPC   C2E 1185   2.541   4.486   1.465
   23POPC   C2F 1186   2.477   4.595   1.552
   23POPC   C2G 1187   2.450   4.569   1.700
   23POPC   C2H 1188   2.373   4.684   1.767
   23POPC   C2I 1189   2.349   4.658   1.916
   23POPC   C2J 1190   2.302   4.780   1.995
   23POPC   C2K 1191   2.216   4.737   2.115
   23POPC   C2L 1192   2.216   4.840   2.227
   23POPC   C2M 1193   2.116   4.802   2.337
   23POPC   C2N 1194   2.129   4.897   2.456
   23POPC   C2O 1195   2.030   4.859   2.567
   23POPC   C2P 1196   2.039   4.958   2.684
   24POPC   CN1 1197   3.265   0.571   0.285
   24POPC   CN2 1198   3.173   0.388   0.401
   24POPC   CN3 1199   3.185   0.378   0.164
   24POPC   NTM 1200   3.161   0.468   0.278
   24POPC    CA 1201   3.032   0.540   0.261
   24POPC    CB 1202   2.897   0.463   0.266
   24POPC    OA 1203   2.878   0.412   0.396
   24POPC     P 1204   2.761   0.308   0.405
   24POPC    OB 1205   2.835   0.198   0.342
   24POPC    OC 1206   2.652   0.369   0.329
   24POPC    OD 1207   2.740   0.287   0.560
   24POPC    CC 1208   2.788   0.386   0.652
   24POPC    CD 1209   2.935   0.367   0.695
   24POPC    OE 1210   2.955   0.259   0.788
   24POPC   C1A 1211   3.075   0.203   0.791
   24POPC    OF 1212   3.155   0.221   0.699
   24POPC   C1B 1213   3.086   0.104   0.900
   24POPC   C1C 1214   3.222   0.113   0.970
   24POPC   C1D 1215   3.219   0.193   1.100
   24POPC   C1E 1216   3.351   0.164   1.171
   24POPC   C1F 1217   3.366   0.222   1.311
   24POPC   C1G 1218   3.500   0.172   1.366
   24POPC   C1H 1219   3.518   0.198   1.516
   24POPC   C1I 1220   3.633   0.114   1.571
   24POPC   C1J 1221   3.631   0.076   1.699
   24POPC   C1K 1222   3.516   0.123   1.789
   24POPC   C1L 1223   3.526   0.074   1.934
   24POPC   C1M 1224   3.648   0.133   2.005
   24POPC   C1N 1225   3.642   0.120   2.158
   24POPC   C1O 1226   3.666  -0.020   2.213
   24POPC   C1P 1227   3.710  -0.014   2.359
   24POPC   C1Q 1228   3.596   0.001   2.460
   24POPC   C1R 1229   3.651   0.018   2.601
   24POPC    CE 1230   2.992   0.503   0.740
   24POPC    OG 1231   2.930   0.562   0.855
   24POPC   C2A 1232   2.990   0.539   0.972
   24POPC    OH 1233   3.108   0.504   0.978
   24POPC   C2B 1234   2.908   0.587   1.086
   24POPC   C2C 1235   2.924   0.500   1.210
   24POPC   C2D 1236   2.830   0.547   1.321
   24POPC   C2E 1237   2.850   0.461   1.446
   24POPC   C2F 1238   2.759   0.504   1.562
   24POPC   C2G 1239   2.785   0.410   1.679
   24POPC   C2H 1240   2.707   0.444   1.806
   24POPC   C2I 1241   2.733   0.333   1.908
   24POPC   C2J 1242   2.677   0.364   2.047
   24POPC   C2K 1243   2.686   0.239   2.135
   24POPC   C2L 1244   2.650   0.268   2.280
   24POPC   C2M 1245   2.577   0.148   2.341
   24POPC   C2N 1246   2.543   0.165   2.489
   24POPC   C2O 1247   2.429   0.069   2.528
   24POPC   C2P 1248   2.388   0.087   2.675
   25POPC   CN1 1249   4.880   2.559   0.236
   25POPC   CN2 1250   4.700   2.526   0.373
   25POPC   CN3 1251   4.668   2.518   0.133
   25POPC   NTM 1252   4.737   2.584   0.244
   25POPC    CA 1253   4.705   2.728   0.244
   25POPC    CB 1254   4.556   2.771   0.246
   25POPC    OA 1255   4.491   2.745   0.368
   25POPC     P 1256   4.357   2.830   0.394
   25POPC    OB 1257   4.256   2.733   0.357
   25POPC    OC 1258   4.384   2.945   0.308
   25POPC    OD 1259   4.366   2.853   0.548
   25POPC    CC 1260   4.492   2.878   0.609
   25POPC    CD 1261   4.548   2.758   0.689
   25POPC    OE 1262   4.461   2.720   0.798
   25POPC   C1A 1263   4.482   2.607   0.863
   25POPC    OF 1264   4.567   2.531   0.821
   25POPC   C1B 1265   4.381   2.580   0.966
   25POPC   C1C 1266   4.360   2.443   1.028
   25POPC   C1D 1267   4.461   2.426   1.139
   25POPC   C1E 1268   4.411   2.358   1.266
   25POPC   C1F 1269   4.537   2.314   1.338
   25POPC   C1G 1270   4.520   2.257   1.478
   25POPC   C1H 1271   4.660   2.248   1.537
   25POPC   C1I 1272   4.674   2.130   1.631
   25POPC   C1J 1273   4.657   2.137   1.762
   25POPC   C1K 1274   4.619   2.263   1.838
   25POPC   C1L 1275   4.618   2.232   1.987
   25POPC   C1M 1276   4.759   2.219   2.046
   25POPC   C1N 1277   4.762   2.245   2.197
   25POPC   C1O 1278   4.661   2.161   2.275
   25POPC   C1P 1279   4.693   2.145   2.424
   25POPC   C1Q 1280   4.725   2.273   2.502
   25POPC   C1R 1281   4.729   2.246   2.652
   25POPC    CE 1282   4.700   2.775   0.715
   25POPC    OG 1283   4.760   2.868   0.807
   25POPC   C2A 1284   4.763   2.832   0.936
   25POPC    OH 1285   4.751   2.714   0.967
   25POPC   C2B 1286   4.815   2.936   1.029
   25POPC   C2C 1287   4.806   2.898   1.177
   25POPC   C2D 1288   4.798   3.020   1.271
   25POPC   C2E 1289   4.765   2.977   1.415
   25POPC   C2F 1290   4.721   3.090   1.509
   25POPC   C2G 1291   4.652   3.036   1.635
   25POPC   C2H 1292   4.637   3.143   1.745
   25POPC   C2I 1293   4.559   3.089   1.866
   25POPC   C2J 1294   4.551   3.188   1.982
   25POPC   C2K 1295   4.466   3.127   2.095
   25POPC   C2L 1296   4.447   3.220   2.215
   25POPC   C2M 1297   4.364   3.151   2.325
   25POPC   C2N 1298   4.341   3.242   2.445
   25POPC   C2O 1299   4.279   3.170   2.565
   25POPC   C2P 1300   4.255   3.266   2.682
   26POPC   CN1 1301   4.819   3.084   0.182
   26POPC   CN2 1302   4.682   3.105   0.375
   26POPC   CN3 1303   4.584   3.125   0.152
   26POPC   NTM 1304   4.702   3.150   0.236
   26POPC    CA 1305   4.730   3.294   0.233
   26POPC    CB 1306   4.618   3.395   0.262
   26POPC    OA 1307   4.560   3.367   0.387
   26POPC     P 1308   4.420   3.437   0.401
   26POPC    OB 1309   4.351   3.341   0.314
   26POPC    OC 1310   4.448   3.573   0.353
   26POPC    OD 1311   4.404   3.420   0.556
   26POPC    CC 1312   4.518   3.442   0.641
   26POPC    CD 1313   4.563   3.311   0.708
   26POPC    OE 1314   4.466   3.269   0.808
   26POPC   C1A 1315   4.462   3.141   0.842
   26POPC    OF 1316   4.559   3.069   0.818
   26POPC   C1B 1317   4.336   3.104   0.910
   26POPC   C1C 1318   4.345   2.971   0.983
   26POPC   C1D 1319   4.421   2.981   1.115
   26POPC   C1E 1320   4.436   2.841   1.172
   26POPC   C1F 1321   4.459   2.841   1.322
   26POPC   C1G 1322   4.459   2.699   1.377
   26POPC   C1H 1323   4.480   2.704   1.528
   26POPC   C1I 1324   4.447   2.569   1.592
   26POPC   C1J 1325   4.431   2.562   1.723
   26POPC   C1K 1326   4.450   2.688   1.807
   26POPC   C1L 1327   4.429   2.669   1.958
   26POPC   C1M 1328   4.519   2.559   2.013
   26POPC   C1N 1329   4.537   2.549   2.164
   26POPC   C1O 1330   4.427   2.471   2.237
   26POPC   C1P 1331   4.453   2.454   2.387
   26POPC   C1Q 1332   4.513   2.577   2.456
   26POPC   C1R 1333   4.529   2.559   2.607
   26POPC    CE 1334   4.710   3.325   0.753
   26POPC    OG 1335   4.734   3.410   0.866
   26POPC   C2A 1336   4.739   3.347   0.983
   26POPC    OH 1337   4.771   3.229   0.992
   26POPC   C2B 1338   4.740   3.440   1.098
   26POPC   C2C 1339   4.659   3.385   1.215
   26POPC   C2D 1340   4.666   3.482   1.333
   26POPC   C2E 1341   4.577   3.433   1.446
   26POPC   C2F 1342   4.581   3.527   1.566
   26POPC   C2G 1343   4.479   3.475   1.668
   26POPC   C2H 1344   4.472   3.554   1.798
   26POPC   C2I 1345   4.352   3.499   1.874
   26POPC   C2J 1346   4.339   3.548   2.018
   26POPC   C2K 1347   4.202   3.505   2.071
   26POPC   C2L 1348   4.204   3.499   2.223
   26POPC   C2M 1349   4.068   3.518   2.290
   26POPC   C2N 1350   4.091   3.521   2.441
   26POPC   C2O 1351   3.976   3.585   2.518
   26POPC   C2P 1352   4.015   3.621   2.662
   27POPC   CN1 1353   0.006   4.057   0.261
   27POPC   CN2 1354  -0.161   3.963   0.388
   27POPC   CN3 1355  -0.150   3.906   0.155
   27POPC   NTM 1356  -0.132   4.013   0.253
   27POPC    CA 1357  -0.212   4.131   0.214
   27POPC    CB 1358  -0.366   4.119   0.207
   27POPC    OA 1359  -0.415   4.102   0.337
   27POPC     P 1360  -0.570   4.128   0.353
   27POPC    OB 1361  -0.639   4.015   0.291
   27POPC    OC 1362  -0.575   4.257   0.282
   27POPC    OD 1363  -0.577   4.137   0.508
   27POPC    CC 1364  -0.468   4.189   0.586
   27POPC    CD 1365  -0.383   4.089   0.667
   27POPC    OE 1366  -0.467   4.003   0.745
   27POPC   C1A 1367  -0.421   3.903   0.817
   27POPC    OF 1368  -0.301   3.874   0.811
   27POPC   C1B 1369  -0.534   3.816   0.856
   27POPC   C1C 1370  -0.541   3.764   0.999
   27POPC   C1D 1371  -0.415   3.696   1.050
   27POPC   C1E 1372  -0.446   3.643   1.189
   27POPC   C1F 1373  -0.319   3.655   1.269
   27POPC   C1G 1374  -0.339   3.626   1.416
   27POPC   C1H 1375  -0.203   3.621   1.485
   27POPC   C1I 1376  -0.208   3.569   1.627
   27POPC   C1J 1377  -0.198   3.541   1.757
   27POPC   C1K 1378  -0.125   3.619   1.863
   27POPC   C1L 1379  -0.177   3.568   1.997
   27POPC   C1M 1380  -0.089   3.626   2.106
   27POPC   C1N 1381  -0.152   3.629   2.245
   27POPC   C1O 1382  -0.232   3.507   2.294
   27POPC   C1P 1383  -0.265   3.514   2.444
   27POPC   C1Q 1384  -0.155   3.582   2.528
   27POPC   C1R 1385  -0.178   3.570   2.679
   27POPC    CE 1386  -0.257   4.157   0.728
   27POPC    OG 1387  -0.262   4.277   0.809
   27POPC   C2A 1388  -0.248   4.257   0.941
   27POPC    OH 1389  -0.194   4.154   0.981
   27POPC   C2B 1390  -0.270   4.379   1.024
   27POPC   C2C 1391  -0.246   4.363   1.176
   27POPC   C2D 1392  -0.346   4.441   1.265
   27POPC   C2E 1393  -0.356   4.388   1.410
   27POPC   C2F 1394  -0.459   4.462   1.499
   27POPC   C2G 1395  -0.494   4.392   1.632
   27POPC   C2H 1396  -0.554   4.490   1.735
   27POPC   C2I 1397  -0.633   4.423   1.848
   27POPC   C2J 1398  -0.674   4.513   1.967
   27POPC   C2K 1399  -0.774   4.439   2.058
   27POPC   C2L 1400  -0.803   4.491   2.200
   27POPC   C2M 1401  -0.881   4.386   2.281
   27POPC   C2N 1402  -0.928   4.435   2.418
   27POPC   C2O 1403  -0.982   4.322   2.506
   27POPC   C2P 1404  -1.043   4.376   2.636
   28POPC   CN1 1405   0.564   3.291   0.288
   28POPC   CN2 1406   0.551   3.478   0.401
   28POPC   CN3 1407   0.595   3.484   0.155
   28POPC   NTM 1408   0.623   3.422   0.286
   28POPC    CA 1409   0.768   3.425   0.317
   28POPC    CB 1410   0.843   3.561   0.303
   28POPC    OA 1411   0.761   3.669   0.348
   28POPC     P 1412   0.833   3.806   0.388
   28POPC    OB 1413   0.731   3.890   0.325
   28POPC    OC 1414   0.964   3.787   0.326
   28POPC    OD 1415   0.821   3.803   0.544
   28POPC    CC 1416   0.866   3.698   0.630
   28POPC    CD 1417   0.752   3.604   0.673
   28POPC    OE 1418   0.649   3.672   0.748
   28POPC   C1A 1419   0.529   3.618   0.765
   28POPC    OF 1420   0.485   3.547   0.673
   28POPC   C1B 1421   0.450   3.692   0.866
   28POPC   C1C 1422   0.340   3.610   0.933
   28POPC   C1D 1423   0.388   3.526   1.051
   28POPC   C1E 1424   0.265   3.463   1.118
   28POPC   C1F 1425   0.291   3.442   1.267
   28POPC   C1G 1426   0.161   3.422   1.345
   28POPC   C1H 1427   0.191   3.427   1.494
   28POPC   C1I 1428   0.070   3.388   1.579
   28POPC   C1J 1429   0.077   3.374   1.711
   28POPC   C1K 1430   0.205   3.399   1.789
   28POPC   C1L 1431   0.193   3.448   1.934
   28POPC   C1M 1432   0.125   3.356   2.035
   28POPC   C1N 1433   0.178   3.380   2.177
   28POPC   C1O 1434   0.065   3.351   2.275
   28POPC   C1P 1435   0.092   3.323   2.423
   28POPC   C1Q 1436   0.162   3.427   2.510
   28POPC   C1R 1437   0.157   3.380   2.655
   28POPC    CE 1438   0.812   3.477   0.737
   28POPC    OG 1439   0.899   3.505   0.846
   28POPC   C2A 1440   0.839   3.519   0.964
   28POPC    OH 1441   0.726   3.474   0.983
   28POPC   C2B 1442   0.934   3.567   1.067
   28POPC   C2C 1443   0.861   3.606   1.195
   28POPC   C2D 1444   0.960   3.606   1.311
   28POPC   C2E 1445   0.882   3.629   1.440
   28POPC   C2F 1446   0.977   3.645   1.558
   28POPC   C2G 1447   0.896   3.679   1.682
   28POPC   C2H 1448   0.987   3.729   1.794
   28POPC   C2I 1449   0.903   3.771   1.914
   28POPC   C2J 1450   0.989   3.836   2.022
   28POPC   C2K 1451   0.897   3.892   2.130
   28POPC   C2L 1452   0.975   3.962   2.241
   28POPC   C2M 1453   0.876   4.027   2.338
   28POPC   C2N 1454   0.949   4.094   2.455
   28POPC   C2O 1455   0.849   4.164   2.547
   28POPC   C2P 1456   0.921   4.225   2.667
   29POPC   CN1 1457   3.045   4.497   0.258
   29POPC   CN2 1458   3.070   4.302   0.388
   29POPC   CN3 1459   3.101   4.293   0.149
   29POPC   NTM 1460   3.024   4.352   0.258
   29POPC    CA 1461   2.882   4.320   0.238
   29POPC    CB 1462   2.838   4.173   0.248
   29POPC    OA 1463   2.824   4.122   0.380
   29POPC     P 1464   2.859   3.968   0.387
   29POPC    OB 1465   2.987   3.972   0.314
   29POPC    OC 1466   2.741   3.914   0.319
   29POPC    OD 1467   2.868   3.937   0.541
   29POPC    CC 1468   2.819   4.027   0.641
   29POPC    CD 1469   2.923   4.130   0.690
   29POPC    OE 1470   3.019   4.073   0.783
   29POPC   C1A 1471   3.139   4.131   0.787
   29POPC    OF 1472   3.175   4.186   0.682
   29POPC   C1B 1473   3.227   4.080   0.894
   29POPC   C1C 1474   3.323   4.179   0.960
   29POPC   C1D 1475   3.273   4.220   1.098
   29POPC   C1E 1476   3.391   4.277   1.176
   29POPC   C1F 1477   3.365   4.316   1.321
   29POPC   C1G 1478   3.501   4.351   1.381
   29POPC   C1H 1479   3.498   4.381   1.531
   29POPC   C1I 1480   3.641   4.384   1.584
   29POPC   C1J 1481   3.665   4.336   1.706
   29POPC   C1K 1482   3.546   4.285   1.787
   29POPC   C1L 1483   3.574   4.265   1.936
   29POPC   C1M 1484   3.596   4.400   2.005
   29POPC   C1N 1485   3.589   4.394   2.158
   29POPC   C1O 1486   3.701   4.313   2.222
   29POPC   C1P 1487   3.710   4.340   2.373
   29POPC   C1Q 1488   3.584   4.298   2.449
   29POPC   C1R 1489   3.593   4.341   2.596
   29POPC    CE 1490   2.849   4.254   0.745
   29POPC    OG 1491   2.790   4.237   0.874
   29POPC   C2A 1492   2.876   4.251   0.976
   29POPC    OH 1493   2.982   4.312   0.963
   29POPC   C2B 1494   2.822   4.202   1.104
   29POPC   C2C 1495   2.927   4.154   1.203
   29POPC   C2D 1496   2.852   4.073   1.307
   29POPC   C2E 1497   2.923   4.050   1.439
   29POPC   C2F 1498   2.823   3.975   1.527
   29POPC   C2G 1499   2.874   3.957   1.669
   29POPC   C2H 1500   2.765   3.895   1.757
   29POPC   C2I 1501   2.832   3.856   1.888
   29POPC   C2J 1502   2.739   3.787   1.988
   29POPC   C2K 1503   2.831   3.733   2.096
   29POPC   C2L 1504   2.756   3.664   2.209
   29POPC   C2M 1505   2.860   3.607   2.305
   29POPC   C2N 1506   2.790   3.545   2.425
   29POPC   C2O 1507   2.890   3.490   2.526
   29POPC   C2P 1508   2.817   3.429   2.645
   30POPC   CN1 1509   1.467   3.769   0.283
   30POPC   CN2 1510   1.317   3.886   0.422
   30POPC   CN3 1511   1.252   3.827   0.200
   30POPC   NTM 1512   1.364   3.872   0.283
   30POPC    CA 1513   1.424   3.993   0.221
   30POPC    CB 1514   1.352   4.128   0.234
   30POPC    OA 1515   1.366   4.178   0.365
   30POPC     P 1516   1.252   4.284   0.396
   30POPC    OB 1517   1.133   4.211   0.353
   30POPC    OC 1518   1.305   4.389   0.308
   30POPC    OD 1519   1.268   4.305   0.550
   30POPC    CC 1520   1.393   4.283   0.617
   30POPC    CD 1521   1.409   4.145   0.684
   30POPC    OE 1522   1.340   4.144   0.810
   30POPC   C1A 1523   1.274   4.035   0.844
   30POPC    OF 1524   1.273   3.937   0.768
   30POPC   C1B 1525   1.189   4.063   0.961
   30POPC   C1C 1526   1.178   3.947   1.059
   30POPC   C1D 1527   1.307   3.924   1.136
   30POPC   C1E 1528   1.278   3.816   1.239
   30POPC   C1F 1529   1.391   3.798   1.340
   30POPC   C1G 1530   1.338   3.707   1.450
   30POPC   C1H 1531   1.419   3.719   1.579
   30POPC   C1I 1532   1.340   3.651   1.690
   30POPC   C1J 1533   1.349   3.689   1.817
   30POPC   C1K 1534   1.443   3.801   1.861
   30POPC   C1L 1535   1.474   3.798   2.011
   30POPC   C1M 1536   1.577   3.690   2.045
   30POPC   C1N 1537   1.621   3.690   2.192
   30POPC   C1O 1538   1.515   3.642   2.292
   30POPC   C1P 1539   1.577   3.606   2.427
   30POPC   C1Q 1540   1.639   3.727   2.498
   30POPC   C1R 1541   1.708   3.685   2.628
   30POPC    CE 1542   1.556   4.097   0.690
   30POPC    OG 1543   1.649   4.163   0.775
   30POPC   C2A 1544   1.647   4.122   0.902
   30POPC    OH 1545   1.629   4.002   0.926
   30POPC   C2B 1546   1.701   4.221   0.998
   30POPC   C2C 1547   1.717   4.179   1.145
   30POPC   C2D 1548   1.785   4.295   1.221
   30POPC   C2E 1549   1.802   4.278   1.371
   30POPC   C2F 1550   1.796   4.417   1.437
   30POPC   C2G 1551   1.778   4.408   1.588
   30POPC   C2H 1552   1.777   4.544   1.659
   30POPC   C2I 1553   1.774   4.520   1.810
   30POPC   C2J 1554   1.789   4.645   1.897
   30POPC   C2K 1555   1.758   4.608   2.042
   30POPC   C2L 1556   1.764   4.729   2.135
   30POPC   C2M 1557   1.696   4.697   2.268
   30POPC   C2N 1558   1.701   4.818   2.362
   30POPC   C2O 1559   1.628   4.789   2.493
   30POPC   C2P 1560   1.642   4.907   2.590
   31POPC   CN1 1561   4.396   1.094   0.356
   31POPC   CN2 1562   4.302   0.899   0.432
   31POPC   CN3 1563   4.377   0.897   0.210
   31POPC   NTM 1564   4.314   0.982   0.311
   31POPC    CA 1565   4.188   1.038   0.255
   31POPC    CB 1566   4.061   0.953   0.240
   31POPC    OA 1567   4.009   0.928   0.368
   31POPC     P 1568   3.944   0.787   0.377
   31POPC    OB 1569   4.061   0.701   0.357
   31POPC    OC 1570   3.847   0.784   0.267
   31POPC    OD 1571   3.886   0.784   0.521
   31POPC    CC 1572   3.928   0.876   0.624
   31POPC    CD 1573   4.068   0.863   0.688
   31POPC    OE 1574   4.097   0.737   0.756
   31POPC   C1A 1575   4.218   0.713   0.808
   31POPC    OF 1576   4.315   0.760   0.746
   31POPC   C1B 1577   4.216   0.597   0.902
   31POPC   C1C 1578   4.338   0.558   0.988
   31POPC   C1D 1579   4.366   0.644   1.112
   31POPC   C1E 1580   4.452   0.576   1.221
   31POPC   C1F 1581   4.517   0.677   1.317
   31POPC   C1G 1582   4.526   0.639   1.466
   31POPC   C1H 1583   4.576   0.754   1.556
   31POPC   C1I 1584   4.710   0.732   1.628
   31POPC   C1J 1585   4.720   0.719   1.761
   31POPC   C1K 1586   4.599   0.720   1.854
   31POPC   C1L 1587   4.630   0.670   1.996
   31POPC   C1M 1588   4.702   0.771   2.087
   31POPC   C1N 1589   4.674   0.754   2.237
   31POPC   C1O 1590   4.692   0.610   2.290
   31POPC   C1P 1591   4.692   0.589   2.442
   31POPC   C1Q 1592   4.646   0.706   2.531
   31POPC   C1R 1593   4.634   0.663   2.677
   31POPC    CE 1594   4.077   0.990   0.774
   31POPC    OG 1595   3.988   0.992   0.886
   31POPC   C2A 1596   4.039   0.937   0.996
   31POPC    OH 1597   4.159   0.919   1.008
   31POPC   C2B 1598   3.942   0.923   1.105
   31POPC   C2C 1599   3.990   0.834   1.219
   31POPC   C2D 1600   3.889   0.857   1.330
   31POPC   C2E 1601   3.921   0.790   1.462
   31POPC   C2F 1602   3.823   0.841   1.567
   31POPC   C2G 1603   3.838   0.747   1.685
   31POPC   C2H 1604   3.731   0.763   1.791
   31POPC   C2I 1605   3.756   0.651   1.892
   31POPC   C2J 1606   3.633   0.625   1.976
   31POPC   C2K 1607   3.663   0.528   2.090
   31POPC   C2L 1608   3.536   0.498   2.167
   31POPC   C2M 1609   3.569   0.436   2.302
   31POPC   C2N 1610   3.442   0.398   2.378
   31POPC   C2O 1611   3.479   0.349   2.518
   31POPC   C2P 1612   3.355   0.308   2.597
   32POPC   CN1 1613   3.016   5.221   0.252
   32POPC   CN2 1614   2.824   5.222   0.385
   32POPC   CN3 1615   2.804   5.246   0.138
   32POPC   NTM 1616   2.880   5.275   0.259
   32POPC    CA 1617   2.886   5.422   0.268
   32POPC    CB 1618   2.756   5.505   0.259
   32POPC    OA 1619   2.661   5.462   0.354
   32POPC     P 1620   2.543   5.566   0.379
   32POPC    OB 1621   2.449   5.478   0.307
   32POPC    OC 1622   2.597   5.689   0.321
   32POPC    OD 1623   2.540   5.557   0.536
   32POPC    CC 1624   2.660   5.559   0.614
   32POPC    CD 1625   2.685   5.421   0.680
   32POPC    OE 1626   2.591   5.398   0.788
   32POPC   C1A 1627   2.543   5.279   0.818
   32POPC    OF 1628   2.558   5.185   0.739
   32POPC   C1B 1629   2.450   5.298   0.933
   32POPC   C1C 1630   2.398   5.187   1.025
   32POPC   C1D 1631   2.502   5.115   1.112
   32POPC   C1E 1632   2.440   5.036   1.228
   32POPC   C1F 1633   2.540   4.929   1.276
   32POPC   C1G 1634   2.554   4.904   1.427
   32POPC   C1H 1635   2.697   4.852   1.445
   32POPC   C1I 1636   2.764   4.780   1.564
   32POPC   C1J 1637   2.757   4.775   1.697
   32POPC   C1K 1638   2.665   4.854   1.790
   32POPC   C1L 1639   2.717   4.861   1.934
   32POPC   C1M 1640   2.741   4.725   2.000
   32POPC   C1N 1641   2.811   4.741   2.135
   32POPC   C1O 1642   2.722   4.800   2.245
   32POPC   C1P 1643   2.783   4.762   2.380
   32POPC   C1Q 1644   2.701   4.814   2.499
   32POPC   C1R 1645   2.763   4.763   2.629
   32POPC    CE 1646   2.831   5.417   0.728
   32POPC    OG 1647   2.852   5.488   0.850
   32POPC   C2A 1648   2.842   5.413   0.959
   32POPC    OH 1649   2.896   5.302   0.962
   32POPC   C2B 1650   2.777   5.485   1.069
   32POPC   C2C 1651   2.837   5.479   1.209
   32POPC   C2D 1652   2.747   5.565   1.297
   32POPC   C2E 1653   2.783   5.558   1.444
   32POPC   C2F 1654   2.721   5.669   1.529
   32POPC   C2G 1655   2.744   5.631   1.675
   32POPC   C2H 1656   2.723   5.741   1.778
   32POPC   C2I 1657   2.706   5.669   1.911
   32POPC   C2J 1658   2.673   5.761   2.028
   32POPC   C2K 1659   2.622   5.677   2.145
   32POPC   C2L 1660   2.576   5.767   2.258
   32POPC   C2M 1661   2.520   5.691   2.379
   32POPC   C2N 1662   2.477   5.793   2.484
   32POPC   C2O 1663   2.432   5.730   2.615
   32POPC   C2P 1664   2.383   5.839   2.710
   33POPC   CN1 1665   2.502   2.249   0.382
   33POPC   CN2 1666   2.315   2.334   0.454
   33POPC   CN3 1667   2.347   2.339   0.215
   33POPC   NTM 1668   2.411   2.356   0.346
   33POPC    CA 1669   2.470   2.492   0.361
   33POPC    CB 1670   2.382   2.613   0.320
   33POPC    OA 1671   2.247   2.586   0.355
   33POPC     P 1672   2.145   2.704   0.367
   33POPC    OB 1673   2.038   2.640   0.289
   33POPC    OC 1674   2.221   2.815   0.307
   33POPC    OD 1675   2.119   2.713   0.522
   33POPC    CC 1676   2.218   2.702   0.625
   33POPC    CD 1677   2.224   2.561   0.688
   33POPC    OE 1678   2.106   2.527   0.765
   33POPC   C1A 1679   2.066   2.401   0.777
   33POPC    OF 1680   2.099   2.320   0.688
   33POPC   C1B 1681   1.942   2.398   0.859
   33POPC   C1C 1682   1.919   2.276   0.948
   33POPC   C1D 1683   1.988   2.288   1.084
   33POPC   C1E 1684   1.936   2.177   1.175
   33POPC   C1F 1685   2.006   2.178   1.310
   33POPC   C1G 1686   1.948   2.067   1.396
   33POPC   C1H 1687   1.998   2.076   1.540
   33POPC   C1I 1688   1.913   1.978   1.620
   33POPC   C1J 1689   1.869   2.001   1.743
   33POPC   C1K 1690   1.905   2.129   1.819
   33POPC   C1L 1691   1.868   2.122   1.968
   33POPC   C1M 1692   1.946   2.013   2.042
   33POPC   C1N 1693   1.948   2.026   2.194
   33POPC   C1O 1694   1.810   2.020   2.262
   33POPC   C1P 1695   1.821   1.985   2.411
   33POPC   C1Q 1696   1.906   2.080   2.496
   33POPC   C1R 1697   1.919   2.027   2.638
   33POPC    CE 1698   2.362   2.538   0.754
   33POPC    OG 1699   2.393   2.620   0.866
   33POPC   C2A 1700   2.340   2.579   0.981
   33POPC    OH 1701   2.285   2.470   0.990
   33POPC   C2B 1702   2.358   2.673   1.093
   33POPC   C2C 1703   2.238   2.659   1.187
   33POPC   C2D 1704   2.267   2.731   1.317
   33POPC   C2E 1705   2.169   2.699   1.429
   33POPC   C2F 1706   2.200   2.794   1.544
   33POPC   C2G 1707   2.133   2.751   1.675
   33POPC   C2H 1708   2.143   2.866   1.775
   33POPC   C2I 1709   2.075   2.827   1.905
   33POPC   C2J 1710   2.060   2.947   1.999
   33POPC   C2K 1711   1.963   2.909   2.110
   33POPC   C2L 1712   1.935   3.023   2.207
   33POPC   C2M 1713   1.819   2.983   2.298
   33POPC   C2N 1714   1.791   3.089   2.404
   33POPC   C2O 1715   1.670   3.050   2.488
   33POPC   C2P 1716   1.647   3.151   2.600
   34POPC   CN1 1717   6.088   3.251   0.209
   34POPC   CN2 1718   5.938   3.354   0.354
   34POPC   CN3 1719   5.872   3.324   0.128
   34POPC   NTM 1720   5.986   3.355   0.215
   34POPC    CA 1721   6.047   3.480   0.168
   34POPC    CB 1722   5.962   3.608   0.176
   34POPC    OA 1723   5.979   3.667   0.304
   34POPC     P 1724   5.846   3.738   0.358
   34POPC    OB 1725   5.768   3.614   0.361
   34POPC    OC 1726   5.847   3.821   0.236
   34POPC    OD 1727   5.926   3.784   0.485
   34POPC    CC 1728   6.007   3.701   0.570
   34POPC    CD 1729   5.979   3.567   0.640
   34POPC    OE 1730   5.865   3.558   0.731
   34POPC   C1A 1731   5.834   3.441   0.788
   34POPC    OF 1732   5.897   3.345   0.748
   34POPC   C1B 1733   5.716   3.437   0.879
   34POPC   C1C 1734   5.689   3.309   0.960
   34POPC   C1D 1735   5.795   3.258   1.059
   34POPC   C1E 1736   5.735   3.151   1.154
   34POPC   C1F 1737   5.835   3.059   1.228
   34POPC   C1G 1738   5.785   2.994   1.359
   34POPC   C1H 1739   5.898   2.955   1.456
   34POPC   C1I 1740   5.848   2.908   1.594
   34POPC   C1J 1741   5.896   2.933   1.718
   34POPC   C1K 1742   6.016   3.019   1.762
   34POPC   C1L 1743   6.003   3.082   1.902
   34POPC   C1M 1744   5.992   2.980   2.016
   34POPC   C1N 1745   6.013   3.043   2.154
   34POPC   C1O 1746   5.964   2.949   2.265
   34POPC   C1P 1747   6.020   2.977   2.405
   34POPC   C1Q 1748   6.014   3.123   2.452
   34POPC   C1R 1749   6.052   3.133   2.600
   34POPC    CE 1750   6.118   3.521   0.691
   34POPC    OG 1751   6.207   3.619   0.747
   34POPC   C2A 1752   6.232   3.598   0.876
   34POPC    OH 1753   6.248   3.482   0.913
   34POPC   C2B 1754   6.276   3.720   0.950
   34POPC   C2C 1755   6.295   3.696   1.100
   34POPC   C2D 1756   6.287   3.826   1.183
   34POPC   C2E 1757   6.331   3.805   1.329
   34POPC   C2F 1758   6.316   3.927   1.422
   34POPC   C2G 1759   6.336   3.889   1.570
   34POPC   C2H 1760   6.324   4.007   1.668
   34POPC   C2I 1761   6.328   3.966   1.816
   34POPC   C2J 1762   6.314   4.087   1.910
   34POPC   C2K 1763   6.310   4.049   2.059
   34POPC   C2L 1764   6.271   4.169   2.147
   34POPC   C2M 1765   6.229   4.125   2.288
   34POPC   C2N 1766   6.187   4.242   2.378
   34POPC   C2O 1767   6.130   4.191   2.511
   34POPC   C2P 1768   6.112   4.303   2.613
   35POPC   CN1 1769   2.026   3.050   0.243
   35POPC   CN2 1770   1.863   3.046   0.412
   35POPC   CN3 1771   1.796   3.029   0.182
   35POPC   NTM 1772   1.891   3.092   0.274
   35POPC    CA 1773   1.893   3.239   0.261
   35POPC    CB 1774   1.764   3.322   0.270
   35POPC    OA 1775   1.703   3.299   0.394
   35POPC     P 1776   1.554   3.343   0.400
   35POPC    OB 1777   1.495   3.237   0.317
   35POPC    OC 1778   1.560   3.478   0.342
   35POPC    OD 1779   1.526   3.341   0.555
   35POPC    CC 1780   1.633   3.369   0.648
   35POPC    CD 1781   1.705   3.244   0.704
   35POPC    OE 1782   1.619   3.166   0.790
   35POPC   C1A 1783   1.640   3.036   0.801
   35POPC    OF 1784   1.715   2.979   0.721
   35POPC   C1B 1785   1.536   2.974   0.888
   35POPC   C1C 1786   1.576   2.844   0.958
   35POPC   C1D 1787   1.664   2.865   1.081
   35POPC   C1E 1788   1.675   2.732   1.156
   35POPC   C1F 1789   1.747   2.746   1.291
   35POPC   C1G 1790   1.743   2.612   1.364
   35POPC   C1H 1791   1.795   2.623   1.508
   35POPC   C1I 1792   1.788   2.487   1.577
   35POPC   C1J 1793   1.742   2.476   1.702
   35POPC   C1K 1794   1.699   2.600   1.782
   35POPC   C1L 1795   1.692   2.576   1.933
   35POPC   C1M 1796   1.826   2.534   1.994
   35POPC   C1N 1797   1.829   2.534   2.147
   35POPC   C1O 1798   1.728   2.439   2.212
   35POPC   C1P 1799   1.757   2.419   2.361
   35POPC   C1Q 1800   1.751   2.548   2.443
   35POPC   C1R 1801   1.789   2.522   2.588
   35POPC    CE 1802   1.839   3.289   0.766
   35POPC    OG 1803   1.825   3.373   0.881
   35POPC   C2A 1804   1.833   3.312   0.999
   35POPC    OH 1805   1.879   3.198   1.009
   35POPC   C2B 1806   1.792   3.400   1.111
   35POPC   C2C 1807   1.746   3.322   1.233
   35POPC   C2D 1808   1.723   3.414   1.353
   35POPC   C2E 1809   1.670   3.328   1.468
   35POPC   C2F 1810   1.647   3.406   1.598
   35POPC   C2G 1811   1.578   3.313   1.698
   35POPC   C2H 1812   1.541   3.385   1.827
   35POPC   C2I 1813   1.446   3.302   1.915
   35POPC   C2J 1814   1.378   3.392   2.019
   35POPC   C2K 1815   1.287   3.317   2.116
   35POPC   C2L 1816   1.221   3.413   2.215
   35POPC   C2M 1817   1.134   3.334   2.314
   35POPC   C2N 1818   1.070   3.422   2.421
   35POPC   C2O 1819   0.983   3.334   2.512
   35POPC   C2P 1820   0.920   3.415   2.626
   36POPC   CN1 1821   3.456   4.913   0.332
   36POPC   CN2 1822   3.541   4.730   0.447
   36POPC   CN3 1823   3.633   4.782   0.236
   36POPC   NTM 1824   3.508   4.778   0.312
   36POPC    CA 1825   3.405   4.704   0.236
   36POPC    CB 1826   3.412   4.551   0.227
   36POPC    OA 1827   3.364   4.496   0.347
   36POPC     P 1828   3.440   4.364   0.387
   36POPC    OB 1829   3.581   4.404   0.382
   36POPC    OC 1830   3.391   4.287   0.272
   36POPC    OD 1831   3.364   4.339   0.521
   36POPC    CC 1832   3.293   4.436   0.602
   36POPC    CD 1833   3.360   4.538   0.694
   36POPC    OE 1834   3.432   4.477   0.802
   36POPC   C1A 1835   3.541   4.540   0.845
   36POPC    OF 1836   3.586   4.634   0.778
   36POPC   C1B 1837   3.609   4.463   0.952
   36POPC   C1C 1838   3.685   4.545   1.056
   36POPC   C1D 1839   3.595   4.627   1.149
   36POPC   C1E 1840   3.681   4.680   1.263
   36POPC   C1F 1841   3.601   4.747   1.375
   36POPC   C1G 1842   3.698   4.784   1.487
   36POPC   C1H 1843   3.628   4.840   1.611
   36POPC   C1I 1844   3.734   4.878   1.715
   36POPC   C1J 1845   3.722   4.845   1.843
   36POPC   C1K 1846   3.599   4.769   1.893
   36POPC   C1L 1847   3.580   4.776   2.045
   36POPC   C1M 1848   3.554   4.917   2.098
   36POPC   C1N 1849   3.510   4.920   2.245
   36POPC   C1O 1850   3.615   4.865   2.343
   36POPC   C1P 1851   3.579   4.898   2.489
   36POPC   C1Q 1852   3.449   4.832   2.536
   36POPC   C1R 1853   3.414   4.876   2.678
   36POPC    CE 1854   3.253   4.642   0.734
   36POPC    OG 1855   3.145   4.602   0.820
   36POPC   C2A 1856   3.160   4.636   0.948
   36POPC    OH 1857   3.244   4.722   0.980
   36POPC   C2B 1858   3.054   4.587   1.038
   36POPC   C2C 1859   3.099   4.572   1.184
   36POPC   C2D 1860   2.984   4.526   1.274
   36POPC   C2E 1861   3.040   4.494   1.413
   36POPC   C2F 1862   2.938   4.435   1.510
   36POPC   C2G 1863   3.011   4.396   1.639
   36POPC   C2H 1864   2.918   4.334   1.743
   36POPC   C2I 1865   2.998   4.286   1.865
   36POPC   C2J 1866   2.906   4.219   1.967
   36POPC   C2K 1867   2.981   4.166   2.089
   36POPC   C2L 1868   2.885   4.106   2.192
   36POPC   C2M 1869   2.965   4.039   2.304
   36POPC   C2N 1870   2.876   3.981   2.414
   36POPC   C2O 1871   2.963   3.911   2.518
   36POPC   C2P 1872   2.879   3.855   2.633
   37POPC   CN1 1873   5.434   4.185   0.151
   37POPC   CN2 1874   5.349   4.117   0.364
   37POPC   CN3 1875   5.259   4.027   0.160
   37POPC   NTM 1876   5.314   4.147   0.223
   37POPC    CA 1877   5.222   4.263   0.219
   37POPC    CB 1878   5.071   4.238   0.236
   37POPC    OA 1879   5.049   4.166   0.356
   37POPC     P 1880   4.907   4.099   0.379
   37POPC    OB 1881   4.964   3.979   0.312
   37POPC    OC 1882   4.828   4.203   0.308
   37POPC    OD 1883   4.919   4.113   0.536
   37POPC    CC 1884   4.958   4.236   0.599
   37POPC    CD 1885   5.102   4.228   0.656
   37POPC    OE 1886   5.104   4.151   0.776
   37POPC   C1A 1887   5.210   4.075   0.799
   37POPC    OF 1888   5.293   4.049   0.711
   37POPC   C1B 1889   5.197   4.028   0.937
   37POPC   C1C 1890   5.326   3.981   1.001
   37POPC   C1D 1891   5.313   4.029   1.144
   37POPC   C1E 1892   5.421   3.967   1.231
   37POPC   C1F 1893   5.438   4.063   1.348
   37POPC   C1G 1894   5.526   3.991   1.448
   37POPC   C1H 1895   5.555   4.077   1.570
   37POPC   C1I 1896   5.620   3.977   1.664
   37POPC   C1J 1897   5.597   3.972   1.794
   37POPC   C1K 1898   5.513   4.073   1.872
   37POPC   C1L 1899   5.553   4.081   2.020
   37POPC   C1M 1900   5.698   4.127   2.041
   37POPC   C1N 1901   5.737   4.189   2.176
   37POPC   C1O 1902   5.677   4.116   2.297
   37POPC   C1P 1903   5.746   4.154   2.428
   37POPC   C1Q 1904   5.696   4.281   2.494
   37POPC   C1R 1905   5.746   4.293   2.637
   37POPC    CE 1906   5.162   4.369   0.676
   37POPC    OG 1907   5.108   4.451   0.781
   37POPC   C2A 1908   5.165   4.438   0.901
   37POPC    OH 1909   5.278   4.391   0.914
   37POPC   C2B 1910   5.094   4.513   1.007
   37POPC   C2C 1911   5.117   4.452   1.146
   37POPC   C2D 1912   5.042   4.530   1.254
   37POPC   C2E 1913   5.059   4.463   1.391
   37POPC   C2F 1914   4.966   4.525   1.495
   37POPC   C2G 1915   4.966   4.444   1.625
   37POPC   C2H 1916   4.853   4.488   1.718
   37POPC   C2I 1917   4.848   4.406   1.847
   37POPC   C2J 1918   4.733   4.452   1.936
   37POPC   C2K 1919   4.739   4.399   2.079
   37POPC   C2L 1920   4.641   4.469   2.174
   37POPC   C2M 1921   4.667   4.421   2.317
   37POPC   C2N 1922   4.569   4.469   2.424
   37POPC   C2O 1923   4.613   4.419   2.562
   37POPC   C2P 1924   4.514   4.455   2.673
   38POPC   CN1 1925   1.744   0.002   0.250
   38POPC   CN2 1926   1.764   0.190   0.390
   38POPC   CN3 1927   1.767   0.223   0.154
   38POPC   NTM 1928   1.810   0.132   0.262
   38POPC    CA 1929   1.957   0.110   0.257
   38POPC    CB 1930   2.054   0.230   0.258
   38POPC    OA 1931   2.028   0.308   0.373
   38POPC     P 1932   2.109   0.441   0.393
   38POPC    OB 1933   2.004   0.526   0.334
   38POPC    OC 1934   2.233   0.412   0.320
   38POPC    OD 1935   2.119   0.437   0.551
   38POPC    CC 1936   2.140   0.314   0.623
   38POPC    CD 1937   2.010   0.251   0.678
   38POPC    OE 1938   1.949   0.328   0.784
   38POPC   C1A 1939   1.816   0.328   0.792
   38POPC    OF 1940   1.746   0.273   0.706
   38POPC   C1B 1941   1.773   0.424   0.895
   38POPC   C1C 1942   1.640   0.398   0.967
   38POPC   C1D 1943   1.658   0.308   1.089
   38POPC   C1E 1944   1.533   0.322   1.177
   38POPC   C1F 1945   1.540   0.229   1.297
   38POPC   C1G 1946   1.416   0.248   1.385
   38POPC   C1H 1947   1.422   0.155   1.506
   38POPC   C1I 1948   1.300   0.179   1.596
   38POPC   C1J 1949   1.313   0.179   1.728
   38POPC   C1K 1950   1.450   0.155   1.795
   38POPC   C1L 1951   1.441   0.140   1.947
   38POPC   C1M 1952   1.354   0.021   1.991
   38POPC   C1N 1953   1.353  -0.004   2.142
   38POPC   C1O 1954   1.273   0.100   2.223
   38POPC   C1P 1955   1.259   0.061   2.371
   38POPC   C1Q 1956   1.394   0.048   2.443
   38POPC   C1R 1957   1.375   0.012   2.591
   38POPC    CE 1958   2.032   0.102   0.709
   38POPC    OG 1959   2.114   0.070   0.822
   38POPC   C2A 1960   2.052   0.053   0.938
   38POPC    OH 1961   1.931   0.032   0.944
   38POPC   C2B 1962   2.148   0.041   1.051
   38POPC   C2C 1963   2.090   0.092   1.183
   38POPC   C2D 1964   2.201   0.107   1.287
   38POPC   C2E 1965   2.146   0.143   1.425
   38POPC   C2F 1966   2.256   0.168   1.528
   38POPC   C2G 1967   2.194   0.183   1.667
   38POPC   C2H 1968   2.294   0.204   1.781
   38POPC   C2I 1969   2.212   0.225   1.909
   38POPC   C2J 1970   2.293   0.251   2.036
   38POPC   C2K 1971   2.200   0.301   2.148
   38POPC   C2L 1972   2.279   0.333   2.275
   38POPC   C2M 1973   2.202   0.407   2.385
   38POPC   C2N 1974   2.296   0.428   2.504
   38POPC   C2O 1975   2.238   0.511   2.619
   38POPC   C2P 1976   2.340   0.524   2.733
   39POPC   CN1 1977   5.292   0.727   0.268
   39POPC   CN2 1978   5.303   0.535   0.394
   39POPC   CN3 1979   5.337   0.518   0.158
   39POPC   NTM 1980   5.260   0.585   0.263
   39POPC    CA 1981   5.114   0.561   0.246
   39POPC    CB 1982   5.055   0.418   0.244
   39POPC    OA 1983   5.070   0.350   0.367
   39POPC     P 1984   4.973   0.224   0.381
   39POPC    OB 1985   5.050   0.109   0.334
   39POPC    OC 1986   4.852   0.265   0.308
   39POPC    OD 1987   4.946   0.220   0.536
   39POPC    CC 1988   4.935   0.343   0.608
   39POPC    CD 1989   5.064   0.385   0.683
   39POPC    OE 1990   5.091   0.299   0.796
   39POPC   C1A 1991   5.207   0.306   0.861
   39POPC    OF 1992   5.290   0.392   0.831
   39POPC   C1B 1993   5.216   0.199   0.964
   39POPC   C1C 1994   5.344   0.201   1.047
   39POPC   C1D 1995   5.332   0.282   1.175
   39POPC   C1E 1996   5.463   0.268   1.254
   39POPC   C1F 1997   5.446   0.320   1.396
   39POPC   C1G 1998   5.580   0.329   1.470
   39POPC   C1H 1999   5.555   0.394   1.606
   39POPC   C1I 2000   5.681   0.411   1.691
   39POPC   C1J 2001   5.665   0.415   1.823
   39POPC   C1K 2002   5.522   0.407   1.879
   39POPC   C1L 2003   5.512   0.426   2.031
   39POPC   C1M 2004   5.564   0.562   2.078
   39POPC   C1N 2005   5.531   0.593   2.225
   39POPC   C1O 2006   5.589   0.492   2.324
   39POPC   C1P 2007   5.579   0.541   2.469
   39POPC   C1Q 2008   5.435   0.556   2.518
   39POPC   C1R 2009   5.432   0.612   2.660
   39POPC    CE 2010   5.047   0.535   0.715
   39POPC    OG 2011   4.948   0.560   0.815
   39POPC   C2A 2012   4.995   0.551   0.939
   39POPC    OH 2013   5.104   0.601   0.966
   39POPC   C2B 2014   4.890   0.511   1.034
   39POPC   C2C 2015   4.931   0.529   1.180
   39POPC   C2D 2016   4.824   0.462   1.264
   39POPC   C2E 2017   4.864   0.452   1.411
   39POPC   C2F 2018   4.756   0.372   1.483
   39POPC   C2G 2019   4.785   0.364   1.633
   39POPC   C2H 2020   4.662   0.317   1.709
   39POPC   C2I 2021   4.697   0.305   1.857
   39POPC   C2J 2022   4.575   0.267   1.941
   39POPC   C2K 2023   4.618   0.242   2.085
   39POPC   C2L 2024   4.498   0.203   2.172
   39POPC   C2M 2025   4.549   0.143   2.302
   39POPC   C2N 2026   4.435   0.108   2.397
   39POPC   C2O 2027   4.490   0.028   2.515
   39POPC   C2P 2028   4.382   0.004   2.621
   40POPC   CN1 2029   6.194   1.096   0.177
   40POPC   CN2 2030   6.028   1.114   0.347
   40POPC   CN3 2031   5.981   1.162   0.112
   40POPC   NTM 2032   6.078   1.173   0.221
   40POPC    CA 2033   6.119   1.313   0.249
   40POPC    CB 2034   6.012   1.423   0.269
   40POPC    OA 2035   5.902   1.388   0.353
   40POPC     P 2036   5.807   1.510   0.395
   40POPC    OB 2037   5.673   1.453   0.377
   40POPC    OC 2038   5.846   1.618   0.303
   40POPC    OD 2039   5.832   1.541   0.547
   40POPC    CC 2040   5.954   1.521   0.619
   40POPC    CD 2041   5.979   1.382   0.683
   40POPC    OE 2042   5.886   1.341   0.786
   40POPC   C1A 2043   5.874   1.209   0.809
   40POPC    OF 2044   5.927   1.138   0.724
   40POPC   C1B 2045   5.791   1.165   0.925
   40POPC   C1C 2046   5.791   1.015   0.960
   40POPC   C1D 2047   5.818   1.001   1.110
   40POPC   C1E 2048   5.833   0.859   1.166
   40POPC   C1F 2049   5.944   0.861   1.271
   40POPC   C1G 2050   5.928   0.762   1.385
   40POPC   C1H 2051   6.032   0.786   1.495
   40POPC   C1I 2052   5.994   0.690   1.607
   40POPC   C1J 2053   6.017   0.709   1.737
   40POPC   C1K 2054   6.094   0.825   1.798
   40POPC   C1L 2055   6.095   0.799   1.948
   40POPC   C1M 2056   6.218   0.858   2.018
   40POPC   C1N 2057   6.225   0.839   2.170
   40POPC   C1O 2058   6.108   0.770   2.243
   40POPC   C1P 2059   6.134   0.754   2.394
   40POPC   C1Q 2060   6.195   0.878   2.460
   40POPC   C1R 2061   6.211   0.862   2.611
   40POPC    CE 2062   6.127   1.378   0.726
   40POPC    OG 2063   6.166   1.489   0.807
   40POPC   C2A 2064   6.220   1.454   0.924
   40POPC    OH 2065   6.290   1.354   0.930
   40POPC   C2B 2066   6.219   1.565   1.022
   40POPC   C2C 2067   6.186   1.515   1.163
   40POPC   C2D 2068   6.181   1.627   1.266
   40POPC   C2E 2069   6.153   1.571   1.406
   40POPC   C2F 2070   6.142   1.681   1.512
   40POPC   C2G 2071   6.112   1.621   1.650
   40POPC   C2H 2072   6.091   1.730   1.755
   40POPC   C2I 2073   6.045   1.669   1.888
   40POPC   C2J 2074   6.014   1.776   1.993
   40POPC   C2K 2075   5.946   1.713   2.115
   40POPC   C2L 2076   5.914   1.817   2.223
   40POPC   C2M 2077   5.832   1.756   2.336
   40POPC   C2N 2078   5.805   1.857   2.447
   40POPC   C2O 2079   5.718   1.796   2.557
   40POPC   C2P 2080   5.696   1.894   2.672
   41POPC   CN1 2081   1.372   4.662   0.170
   41POPC   CN2 2082   1.269   4.789   0.338
   41POPC   CN3 2083   1.217   4.833   0.108
   41POPC   NTM 2084   1.324   4.796   0.200
   41POPC    CA 2085   1.446   4.880   0.186
   41POPC    CB 2086   1.445   5.032   0.211
   41POPC    OA 2087   1.385   5.054   0.336
   41POPC     P 2088   1.353   5.199   0.384
   41POPC    OB 2089   1.215   5.178   0.427
   41POPC    OC 2090   1.372   5.280   0.262
   41POPC    OD 2091   1.454   5.224   0.500
   41POPC    CC 2092   1.501   5.118   0.585
   41POPC    CD 2093   1.420   5.004   0.651
   41POPC    OE 2094   1.320   5.038   0.751
   41POPC   C1A 2095   1.239   4.941   0.793
   41POPC    OF 2096   1.222   4.841   0.722
   41POPC   C1B 2097   1.152   4.981   0.907
   41POPC   C1C 2098   1.093   4.866   0.990
   41POPC   C1D 2099   1.186   4.815   1.100
   41POPC   C1E 2100   1.111   4.716   1.190
   41POPC   C1F 2101   1.192   4.687   1.316
   41POPC   C1G 2102   1.120   4.586   1.406
   41POPC   C1H 2103   1.201   4.564   1.533
   41POPC   C1I 2104   1.141   4.450   1.615
   41POPC   C1J 2105   1.151   4.450   1.747
   41POPC   C1K 2106   1.223   4.563   1.821
   41POPC   C1L 2107   1.201   4.560   1.972
   41POPC   C1M 2108   1.243   4.426   2.033
   41POPC   C1N 2109   1.281   4.431   2.181
   41POPC   C1O 2110   1.163   4.444   2.276
   41POPC   C1P 2111   1.205   4.412   2.420
   41POPC   C1Q 2112   1.312   4.506   2.474
   41POPC   C1R 2113   1.344   4.475   2.620
   41POPC    CE 2114   1.531   4.911   0.703
   41POPC    OG 2115   1.630   4.973   0.786
   41POPC   C2A 2116   1.615   4.951   0.916
   41POPC    OH 2117   1.525   4.879   0.960
   41POPC   C2B 2118   1.710   5.028   0.999
   41POPC   C2C 2119   1.651   5.040   1.139
   41POPC   C2D 2120   1.736   5.123   1.234
   41POPC   C2E 2121   1.676   5.103   1.373
   41POPC   C2F 2122   1.755   5.181   1.477
   41POPC   C2G 2123   1.694   5.152   1.614
   41POPC   C2H 2124   1.756   5.243   1.719
   41POPC   C2I 2125   1.679   5.225   1.849
   41POPC   C2J 2126   1.724   5.332   1.949
   41POPC   C2K 2127   1.638   5.324   2.075
   41POPC   C2L 2128   1.681   5.435   2.171
   41POPC   C2M 2129   1.604   5.427   2.302
   41POPC   C2N 2130   1.654   5.536   2.397
   41POPC   C2O 2131   1.595   5.518   2.536
   41POPC   C2P 2132   1.642   5.628   2.632
   42POPC   CN1 2133   2.518   1.939   0.174
   42POPC   CN2 2134   2.672   1.962   0.353
   42POPC   CN3 2135   2.749   1.988   0.123
   42POPC   NTM 2136   2.657   1.918   0.212
   42POPC    CA 2137   2.681   1.771   0.202
   42POPC    CB 2138   2.820   1.709   0.228
   42POPC    OA 2139   2.888   1.785   0.326
   42POPC     P 2140   3.031   1.740   0.373
   42POPC    OB 2141   3.085   1.875   0.345
   42POPC    OC 2142   3.062   1.627   0.283
   42POPC    OD 2143   3.001   1.703   0.523
   42POPC    CC 2144   2.884   1.631   0.567
   42POPC    CD 2145   2.784   1.717   0.647
   42POPC    OE 2146   2.842   1.763   0.771
   42POPC   C1A 2147   2.808   1.881   0.820
   42POPC    OF 2148   2.767   1.967   0.739
   42POPC   C1B 2149   2.874   1.903   0.951
   42POPC   C1C 2150   2.799   1.984   1.057
   42POPC   C1D 2151   2.717   1.903   1.159
   42POPC   C1E 2152   2.663   2.004   1.261
   42POPC   C1F 2153   2.595   1.951   1.387
   42POPC   C1G 2154   2.520   2.065   1.458
   42POPC   C1H 2155   2.449   2.028   1.588
   42POPC   C1I 2156   2.370   2.137   1.659
   42POPC   C1J 2157   2.369   2.128   1.792
   42POPC   C1K 2158   2.449   2.012   1.850
   42POPC   C1L 2159   2.444   1.998   2.002
   42POPC   C1M 2160   2.304   1.958   2.045
   42POPC   C1N 2161   2.295   1.897   2.185
   42POPC   C1O 2162   2.334   1.994   2.296
   42POPC   C1P 2163   2.268   1.955   2.429
   42POPC   C1Q 2164   2.300   1.813   2.475
   42POPC   C1R 2165   2.238   1.786   2.612
   42POPC    CE 2166   2.653   1.636   0.667
   42POPC    OG 2167   2.666   1.525   0.755
   42POPC   C2A 2168   2.647   1.551   0.884
   42POPC    OH 2169   2.590   1.653   0.922
   42POPC   C2B 2170   2.685   1.435   0.969
   42POPC   C2C 2171   2.637   1.453   1.113
   42POPC   C2D 2172   2.666   1.328   1.195
   42POPC   C2E 2173   2.636   1.364   1.340
   42POPC   C2F 2174   2.673   1.253   1.437
   42POPC   C2G 2175   2.664   1.317   1.575
   42POPC   C2H 2176   2.709   1.223   1.686
   42POPC   C2I 2177   2.730   1.306   1.813
   42POPC   C2J 2178   2.801   1.219   1.915
   42POPC   C2K 2179   2.850   1.293   2.038
   42POPC   C2L 2180   2.934   1.196   2.121
   42POPC   C2M 2181   2.961   1.254   2.258
   42POPC   C2N 2182   3.025   1.153   2.352
   42POPC   C2O 2183   3.031   1.219   2.490
   42POPC   C2P 2184   3.079   1.127   2.601
   43POPC   CN1 2185   0.544   6.120   0.234
   43POPC   CN2 2186   0.694   6.192   0.400
   43POPC   CN3 2187   0.742   6.248   0.174
   43POPC   NTM 2188   0.686   6.143   0.260
   43POPC    CA 2189   0.759   6.014   0.240
   43POPC    CB 2190   0.913   6.010   0.248
   43POPC    OA 2191   0.947   6.065   0.373
   43POPC     P 2192   1.098   6.095   0.402
   43POPC    OB 2193   1.086   6.238   0.369
   43POPC    OC 2194   1.172   6.007   0.310
   43POPC    OD 2195   1.097   6.062   0.557
   43POPC    CC 2196   1.016   5.957   0.613
   43POPC    CD 2197   0.882   6.005   0.674
   43POPC    OE 2198   0.902   6.071   0.801
   43POPC   C1A 2199   0.832   6.179   0.830
   43POPC    OF 2200   0.743   6.221   0.754
   43POPC   C1B 2201   0.890   6.246   0.949
   43POPC   C1C 2202   0.792   6.320   1.040
   43POPC   C1D 2203   0.708   6.227   1.127
   43POPC   C1E 2204   0.634   6.312   1.230
   43POPC   C1F 2205   0.555   6.229   1.331
   43POPC   C1G 2206   0.495   6.323   1.436
   43POPC   C1H 2207   0.424   6.247   1.549
   43POPC   C1I 2208   0.369   6.348   1.650
   43POPC   C1J 2209   0.390   6.334   1.781
   43POPC   C1K 2210   0.469   6.214   1.836
   43POPC   C1L 2211   0.444   6.188   1.986
   43POPC   C1M 2212   0.298   6.152   2.017
   43POPC   C1N 2213   0.276   6.102   2.160
   43POPC   C1O 2214   0.310   6.205   2.269
   43POPC   C1P 2215   0.259   6.161   2.407
   43POPC   C1Q 2216   0.326   6.033   2.458
   43POPC   C1R 2217   0.266   5.990   2.593
   43POPC    CE 2218   0.779   5.890   0.674
   43POPC    OG 2219   0.784   5.792   0.778
   43POPC   C2A 2220   0.726   5.822   0.894
   43POPC    OH 2221   0.629   5.898   0.897
   43POPC   C2B 2222   0.759   5.721   0.998
   43POPC   C2C 2223   0.776   5.773   1.141
   43POPC   C2D 2224   0.835   5.659   1.225
   43POPC   C2E 2225   0.844   5.691   1.375
   43POPC   C2F 2226   0.912   5.577   1.451
   43POPC   C2G 2227   0.913   5.610   1.600
   43POPC   C2H 2228   0.991   5.509   1.686
   43POPC   C2I 2229   0.995   5.564   1.829
   43POPC   C2J 2230   1.081   5.481   1.924
   43POPC   C2K 2231   1.095   5.558   2.056
   43POPC   C2L 2232   1.172   5.481   2.162
   43POPC   C2M 2233   1.182   5.567   2.288
   43POPC   C2N 2234   1.226   5.484   2.409
   43POPC   C2O 2235   1.222   5.569   2.536
   43POPC   C2P 2236   1.253   5.484   2.660
   44POPC   CN1 2237   4.024   4.286   0.303
   44POPC   CN2 2238   4.047   4.084   0.414
   44POPC   CN3 2239   4.084   4.082   0.181
   44POPC   NTM 2240   4.002   4.142   0.287
   44POPC    CA 2241   3.860   4.119   0.255
   44POPC    CB 2242   3.810   3.974   0.242
   44POPC    OA 2243   3.765   3.926   0.366
   44POPC     P 2244   3.806   3.776   0.398
   44POPC    OB 2245   3.950   3.791   0.404
   44POPC    OC 2246   3.745   3.719   0.276
   44POPC    OD 2247   3.719   3.776   0.530
   44POPC    CC 2248   3.716   3.881   0.629
   44POPC    CD 2249   3.843   3.940   0.693
   44POPC    OE 2250   3.894   3.860   0.801
   44POPC   C1A 2251   4.025   3.861   0.824
   44POPC    OF 2252   4.096   3.941   0.763
   44POPC   C1B 2253   4.063   3.755   0.921
   44POPC   C1C 2254   4.201   3.762   0.987
   44POPC   C1D 2255   4.206   3.854   1.109
   44POPC   C1E 2256   4.334   3.833   1.192
   44POPC   C1F 2257   4.342   3.938   1.304
   44POPC   C1G 2258   4.454   3.918   1.407
   44POPC   C1H 2259   4.446   4.025   1.517
   44POPC   C1I 2260   4.574   4.034   1.601
   44POPC   C1J 2261   4.585   4.007   1.731
   44POPC   C1K 2262   4.469   3.960   1.820
   44POPC   C1L 2263   4.492   3.980   1.971
   44POPC   C1M 2264   4.487   4.126   2.017
   44POPC   C1N 2265   4.454   4.147   2.166
   44POPC   C1O 2266   4.539   4.066   2.264
   44POPC   C1P 2267   4.519   4.097   2.414
   44POPC   C1Q 2268   4.378   4.136   2.460
   44POPC   C1R 2269   4.362   4.124   2.612
   44POPC    CE 2270   3.808   4.085   0.734
   44POPC    OG 2271   3.707   4.095   0.834
   44POPC   C2A 2272   3.755   4.114   0.956
   44POPC    OH 2273   3.839   4.202   0.973
   44POPC   C2B 2274   3.668   4.055   1.061
   44POPC   C2C 2275   3.722   4.058   1.204
   44POPC   C2D 2276   3.613   4.001   1.296
   44POPC   C2E 2277   3.641   4.009   1.446
   44POPC   C2F 2278   3.517   3.963   1.523
   44POPC   C2G 2279   3.543   3.945   1.673
   44POPC   C2H 2280   3.421   3.892   1.750
   44POPC   C2I 2281   3.464   3.856   1.893
   44POPC   C2J 2282   3.357   3.791   1.982
   44POPC   C2K 2283   3.429   3.703   2.084
   44POPC   C2L 2284   3.353   3.649   2.206
   44POPC   C2M 2285   3.446   3.552   2.280
   44POPC   C2N 2286   3.408   3.529   2.426
   44POPC   C2O 2287   3.507   3.432   2.491
   44POPC   C2P 2288   3.486   3.421   2.643
   45POPC   CN1 2289   0.053   3.008   0.326
   45POPC   CN2 2290   0.252   2.968   0.433
   45POPC   CN3 2291   0.255   3.047   0.207
   45POPC   NTM 2292   0.188   2.957   0.300
   45POPC    CA 2293   0.183   2.821   0.241
   45POPC    CB 2294   0.311   2.734   0.235
   45POPC    OA 2295   0.329   2.667   0.357
   45POPC     P 2296   0.480   2.652   0.409
   45POPC    OB 2297   0.508   2.793   0.432
   45POPC    OC 2298   0.528   2.596   0.281
   45POPC    OD 2299   0.435   2.554   0.522
   45POPC    CC 2300   0.320   2.568   0.609
   45POPC    CD 2301   0.272   2.694   0.682
   45POPC    OE 2302   0.368   2.755   0.769
   45POPC   C1A 2303   0.348   2.882   0.805
   45POPC    OF 2304   0.283   2.953   0.727
   45POPC   C1B 2305   0.446   2.924   0.908
   45POPC   C1C 2306   0.395   3.025   1.010
   45POPC   C1D 2307   0.282   2.972   1.098
   45POPC   C1E 2308   0.275   3.064   1.218
   45POPC   C1F 2309   0.176   3.025   1.326
   45POPC   C1G 2310   0.249   3.067   1.453
   45POPC   C1H 2311   0.179   3.060   1.587
   45POPC   C1I 2312   0.293   3.084   1.685
   45POPC   C1J 2313   0.289   3.068   1.817
   45POPC   C1K 2314   0.164   3.025   1.892
   45POPC   C1L 2315   0.196   3.014   2.041
   45POPC   C1M 2316   0.074   2.954   2.110
   45POPC   C1N 2317   0.049   3.003   2.252
   45POPC   C1O 2318   0.157   2.986   2.360
   45POPC   C1P 2319   0.080   2.982   2.492
   45POPC   C1Q 2320   0.164   2.983   2.619
   45POPC   C1R 2321   0.071   2.972   2.740
   45POPC    CE 2322   0.132   2.664   0.740
   45POPC    OG 2323   0.111   2.539   0.807
   45POPC   C2A 2324   0.099   2.550   0.940
   45POPC    OH 2325   0.070   2.659   0.989
   45POPC   C2B 2326   0.101   2.420   1.013
   45POPC   C2C 2327   0.084   2.435   1.165
   45POPC   C2D 2328   0.130   2.310   1.242
   45POPC   C2E 2329   0.127   2.337   1.393
   45POPC   C2F 2330   0.202   2.234   1.479
   45POPC   C2G 2331   0.228   2.291   1.620
   45POPC   C2H 2332   0.278   2.187   1.722
   45POPC   C2I 2333   0.321   2.254   1.853
   45POPC   C2J 2334   0.349   2.153   1.965
   45POPC   C2K 2335   0.413   2.219   2.088
   45POPC   C2L 2336   0.438   2.116   2.198
   45POPC   C2M 2337   0.520   2.173   2.315
   45POPC   C2N 2338   0.551   2.064   2.418
   45POPC   C2O 2339   0.637   2.119   2.532
   45POPC   C2P 2340   0.673   2.009   2.632
   46POPC   CN1 2341   2.703   3.120   0.345
   46POPC   CN2 2342   2.498   3.078   0.453
   46POPC   CN3 2343   2.523   3.006   0.227
   46POPC   NTM 2344   2.559   3.111   0.322
   46POPC    CA 2345   2.519   3.237   0.257
   46POPC    CB 2346   2.371   3.277   0.263
   46POPC    OA 2347   2.352   3.355   0.377
   46POPC     P 2348   2.210   3.343   0.446
   46POPC    OB 2349   2.203   3.204   0.488
   46POPC    OC 2350   2.134   3.376   0.324
   46POPC    OD 2351   2.241   3.465   0.537
   46POPC    CC 2352   2.350   3.470   0.631
   46POPC    CD 2353   2.396   3.344   0.707
   46POPC    OE 2354   2.303   3.300   0.807
   46POPC   C1A 2355   2.311   3.174   0.847
   46POPC    OF 2356   2.377   3.093   0.782
   46POPC   C1B 2357   2.212   3.146   0.954
   46POPC   C1C 2358   2.266   3.062   1.070
   46POPC   C1D 2359   2.377   3.129   1.151
   46POPC   C1E 2360   2.400   3.043   1.275
   46POPC   C1F 2361   2.514   3.082   1.368
   46POPC   C1G 2362   2.529   2.968   1.468
   46POPC   C1H 2363   2.576   3.012   1.607
   46POPC   C1I 2364   2.578   2.889   1.696
   46POPC   C1J 2365   2.529   2.888   1.820
   46POPC   C1K 2366   2.472   3.012   1.887
   46POPC   C1L 2367   2.450   2.987   2.037
   46POPC   C1M 2368   2.583   2.971   2.109
   46POPC   C1N 2369   2.569   2.919   2.252
   46POPC   C1O 2370   2.492   3.009   2.349
   46POPC   C1P 2371   2.520   2.965   2.493
   46POPC   C1Q 2372   2.490   3.079   2.591
   46POPC   C1R 2373   2.574   3.070   2.718
   46POPC    CE 2374   2.542   3.368   0.750
   46POPC    OG 2375   2.568   3.481   0.834
   46POPC   C2A 2376   2.593   3.451   0.962
   46POPC    OH 2377   2.620   3.335   0.993
   46POPC   C2B 2378   2.606   3.568   1.052
   46POPC   C2C 2379   2.573   3.535   1.197
   46POPC   C2D 2380   2.552   3.662   1.280
   46POPC   C2E 2381   2.533   3.631   1.429
   46POPC   C2F 2382   2.464   3.745   1.504
   46POPC   C2G 2383   2.454   3.720   1.654
   46POPC   C2H 2384   2.379   3.832   1.727
   46POPC   C2I 2385   2.376   3.817   1.879
   46POPC   C2J 2386   2.296   3.929   1.945
   46POPC   C2K 2387   2.270   3.903   2.094
   46POPC   C2L 2388   2.137   3.969   2.133
   46POPC   C2M 2389   2.096   3.945   2.278
   46POPC   C2N 2390   1.965   4.015   2.316
   46POPC   C2O 2391   1.913   3.981   2.456
   46POPC   C2P 2392   1.981   4.054   2.573
   47POPC   CN1 2393   2.399   3.650   0.227
   47POPC   CN2 2394   2.199   3.687   0.347
   47POPC   CN3 2395   2.186   3.604   0.123
   47POPC   NTM 2396   2.259   3.694   0.212
   47POPC    CA 2397   2.251   3.825   0.146
   47POPC    CB 2398   2.138   3.919   0.189
   47POPC    OA 2399   2.177   3.976   0.313
   47POPC     P 2400   2.056   4.046   0.385
   47POPC    OB 2401   1.950   3.945   0.370
   47POPC    OC 2402   2.055   4.159   0.291
   47POPC    OD 2403   2.116   4.079   0.525
   47POPC    CC 2404   2.236   4.022   0.579
   47POPC    CD 2405   2.253   3.886   0.647
   47POPC    OE 2406   2.171   3.874   0.764
   47POPC   C1A 2407   2.124   3.756   0.800
   47POPC    OF 2408   2.128   3.665   0.717
   47POPC   C1B 2409   2.033   3.769   0.915
   47POPC   C1C 2410   2.028   3.651   1.011
   47POPC   C1D 2411   2.150   3.630   1.099
   47POPC   C1E 2412   2.106   3.536   1.211
   47POPC   C1F 2413   2.214   3.497   1.310
   47POPC   C1G 2414   2.156   3.410   1.421
   47POPC   C1H 2415   2.260   3.381   1.531
   47POPC   C1I 2416   2.202   3.288   1.637
   47POPC   C1J 2417   2.214   3.318   1.767
   47POPC   C1K 2418   2.286   3.446   1.808
   47POPC   C1L 2419   2.317   3.458   1.957
   47POPC   C1M 2420   2.426   3.365   2.009
   47POPC   C1N 2421   2.456   3.387   2.157
   47POPC   C1O 2422   2.334   3.362   2.247
   47POPC   C1P 2423   2.369   3.356   2.396
   47POPC   C1Q 2424   2.434   3.482   2.452
   47POPC   C1R 2425   2.455   3.469   2.603
   47POPC    CE 2426   2.405   3.866   0.667
   47POPC    OG 2427   2.480   3.950   0.757
   47POPC   C2A 2428   2.477   3.905   0.884
   47POPC    OH 2429   2.459   3.785   0.902
   47POPC   C2B 2430   2.533   3.994   0.988
   47POPC   C2C 2431   2.455   3.980   1.121
   47POPC   C2D 2432   2.512   4.068   1.233
   47POPC   C2E 2433   2.437   4.071   1.367
   47POPC   C2F 2434   2.520   4.143   1.475
   47POPC   C2G 2435   2.463   4.153   1.617
   47POPC   C2H 2436   2.559   4.224   1.713
   47POPC   C2I 2437   2.512   4.234   1.859
   47POPC   C2J 2438   2.582   4.343   1.942
   47POPC   C2K 2439   2.541   4.336   2.089
   47POPC   C2L 2440   2.593   4.443   2.187
   47POPC   C2M 2441   2.480   4.517   2.260
   47POPC   C2N 2442   2.490   4.519   2.414
   47POPC   C2O 2443   2.361   4.573   2.477
   47POPC   C2P 2444   2.371   4.596   2.628
   48POPC   CN1 2445   1.742   4.201   0.285
   48POPC   CN2 2446   1.665   4.357   0.436
   48POPC   CN3 2447   1.616   4.386   0.202
   48POPC   NTM 2448   1.717   4.344   0.299
   48POPC    CA 2449   1.842   4.423   0.286
   48POPC    CB 2450   1.835   4.579   0.279
   48POPC    OA 2451   1.738   4.622   0.372
   48POPC     P 2452   1.709   4.773   0.401
   48POPC    OB 2453   1.571   4.760   0.445
   48POPC    OC 2454   1.736   4.832   0.269
   48POPC    OD 2455   1.809   4.811   0.515
   48POPC    CC 2456   1.848   4.723   0.622
   48POPC    CD 2457   1.772   4.607   0.691
   48POPC    OE 2458   1.668   4.641   0.787
   48POPC   C1A 2459   1.587   4.544   0.833
   48POPC    OF 2460   1.586   4.439   0.768
   48POPC   C1B 2461   1.494   4.580   0.944
   48POPC   C1C 2462   1.423   4.465   1.019
   48POPC   C1D 2463   1.459   4.458   1.168
   48POPC   C1E 2464   1.388   4.344   1.244
   48POPC   C1F 2465   1.450   4.326   1.384
   48POPC   C1G 2466   1.391   4.217   1.474
   48POPC   C1H 2467   1.477   4.201   1.600
   48POPC   C1I 2468   1.402   4.136   1.717
   48POPC   C1J 2469   1.436   4.160   1.844
   48POPC   C1K 2470   1.554   4.250   1.879
   48POPC   C1L 2471   1.576   4.271   2.030
   48POPC   C1M 2472   1.626   4.146   2.102
   48POPC   C1N 2473   1.658   4.172   2.250
   48POPC   C1O 2474   1.536   4.188   2.341
   48POPC   C1P 2475   1.573   4.180   2.490
   48POPC   C1Q 2476   1.665   4.294   2.537
   48POPC   C1R 2477   1.688   4.285   2.688
   48POPC    CE 2478   1.890   4.529   0.754
   48POPC    OG 2479   1.958   4.608   0.852
   48POPC   C2A 2480   1.898   4.605   0.971
   48POPC    OH 2481   1.847   4.501   1.011
   48POPC   C2B 2482   1.917   4.728   1.049
   48POPC   C2C 2483   1.873   4.715   1.194
   48POPC   C2D 2484   1.938   4.828   1.273
   48POPC   C2E 2485   1.920   4.811   1.423
   48POPC   C2F 2486   2.014   4.904   1.498
   48POPC   C2G 2487   1.995   4.884   1.648
   48POPC   C2H 2488   2.066   4.992   1.730
   48POPC   C2I 2489   2.011   4.985   1.872
   48POPC   C2J 2490   2.059   5.100   1.960
   48POPC   C2K 2491   1.984   5.094   2.092
   48POPC   C2L 2492   2.022   5.206   2.188
   48POPC   C2M 2493   1.939   5.192   2.315
   48POPC   C2N 2494   1.974   5.298   2.419
   48POPC   C2O 2495   1.891   5.273   2.545
   48POPC   C2P 2496   1.927   5.370   2.657
   49POPC   CN1 2497   6.163   2.692   0.375
   49POPC   CN2 2498   5.952   2.734   0.460
   49POPC   CN3 2499   5.968   2.632   0.249
   49POPC   NTM 2500   6.029   2.734   0.334
   49POPC    CA 2501   6.032   2.862   0.260
   49POPC    CB 2502   5.905   2.948   0.239
   49POPC    OA 2503   5.882   3.027   0.353
   49POPC     P 2504   5.726   3.031   0.394
   49POPC    OB 2505   5.690   2.890   0.370
   49POPC    OC 2506   5.692   3.127   0.288
   49POPC    OD 2507   5.743   3.081   0.541
   49POPC    CC 2508   5.866   3.108   0.612
   49POPC    CD 2509   5.941   3.007   0.700
   49POPC    OE 2510   5.857   2.947   0.799
   49POPC   C1A 2511   5.879   2.822   0.836
   49POPC    OF 2512   5.946   2.750   0.758
   49POPC   C1B 2513   5.782   2.782   0.939
   49POPC   C1C 2514   5.819   2.667   1.033
   49POPC   C1D 2515   5.924   2.704   1.137
   49POPC   C1E 2516   5.917   2.600   1.249
   49POPC   C1F 2517   6.017   2.628   1.362
   49POPC   C1G 2518   5.993   2.528   1.475
   49POPC   C1H 2519   6.079   2.556   1.598
   49POPC   C1I 2520   6.063   2.441   1.697
   49POPC   C1J 2521   6.018   2.457   1.822
   49POPC   C1K 2522   5.983   2.595   1.879
   49POPC   C1L 2523   5.978   2.596   2.033
   49POPC   C1M 2524   6.113   2.563   2.096
   49POPC   C1N 2525   6.124   2.594   2.246
   49POPC   C1O 2526   6.041   2.504   2.338
   49POPC   C1P 2527   6.088   2.512   2.484
   49POPC   C1Q 2528   6.072   2.651   2.545
   49POPC   C1R 2529   6.119   2.657   2.690
   49POPC    CE 2530   6.078   3.059   0.751
   49POPC    OG 2531   6.102   3.161   0.850
   49POPC   C2A 2532   6.136   3.119   0.973
   49POPC    OH 2533   6.160   3.000   0.990
   49POPC   C2B 2534   6.160   3.228   1.073
   49POPC   C2C 2535   6.154   3.189   1.222
   49POPC   C2D 2536   6.084   3.297   1.306
   49POPC   C2E 2537   6.046   3.263   1.452
   49POPC   C2F 2538   5.906   3.314   1.493
   49POPC   C2G 2539   5.878   3.324   1.645
   49POPC   C2H 2540   5.787   3.439   1.695
   49POPC   C2I 2541   5.792   3.448   1.849
   49POPC   C2J 2542   5.700   3.550   1.918
   49POPC   C2K 2543   5.709   3.533   2.070
   49POPC   C2L 2544   5.606   3.612   2.152
   49POPC   C2M 2545   5.574   3.540   2.284
   49POPC   C2N 2546   5.503   3.629   2.387
   49POPC   C2O 2547   5.439   3.545   2.498
   49POPC   C2P 2548   5.393   3.631   2.616
   50POPC   CN1 2549   3.450   5.671   0.117
   50POPC   CN2 2550   3.339   5.648   0.326
   50POPC   CN3 2551   3.232   5.579   0.124
   50POPC   NTM 2552   3.321   5.680   0.183
   50POPC    CA 2553   3.276   5.820   0.163
   50POPC    CB 2554   3.131   5.864   0.188
   50POPC    OA 2555   3.092   5.860   0.324
   50POPC     P 2556   2.966   5.770   0.357
   50POPC    OB 2557   3.028   5.639   0.371
   50POPC    OC 2558   2.889   5.790   0.234
   50POPC    OD 2559   2.925   5.831   0.493
   50POPC    CC 2560   3.026   5.873   0.588
   50POPC    CD 2561   3.140   5.786   0.646
   50POPC    OE 2562   3.109   5.700   0.758
   50POPC   C1A 2563   3.168   5.580   0.763
   50POPC    OF 2564   3.208   5.532   0.656
   50POPC   C1B 2565   3.157   5.512   0.896
   50POPC   C1C 2566   3.260   5.403   0.932
   50POPC   C1D 2567   3.231   5.338   1.069
   50POPC   C1E 2568   3.337   5.243   1.129
   50POPC   C1F 2569   3.450   5.308   1.212
   50POPC   C1G 2570   3.472   5.242   1.351
   50POPC   C1H 2571   3.540   5.331   1.458
   50POPC   C1I 2572   3.561   5.255   1.591
   50POPC   C1J 2573   3.541   5.289   1.719
   50POPC   C1K 2574   3.483   5.418   1.780
   50POPC   C1L 2575   3.458   5.406   1.932
   50POPC   C1M 2576   3.588   5.419   2.011
   50POPC   C1N 2577   3.578   5.453   2.160
   50POPC   C1O 2578   3.553   5.333   2.251
   50POPC   C1P 2579   3.605   5.355   2.394
   50POPC   C1Q 2580   3.529   5.463   2.470
   50POPC   C1R 2581   3.578   5.477   2.615
   50POPC    CE 2582   3.251   5.886   0.681
   50POPC    OG 2583   3.208   6.003   0.753
   50POPC   C2A 2584   3.251   6.015   0.878
   50POPC    OH 2585   3.369   5.990   0.901
   50POPC   C2B 2586   3.158   6.096   0.961
   50POPC   C2C 2587   3.185   6.106   1.112
   50POPC   C2D 2588   3.074   6.187   1.182
   50POPC   C2E 2589   3.096   6.204   1.334
   50POPC   C2F 2590   2.977   6.258   1.415
   50POPC   C2G 2591   2.960   6.181   1.547
   50POPC   C2H 2592   2.876   6.246   1.657
   50POPC   C2I 2593   2.855   6.151   1.776
   50POPC   C2J 2594   2.789   6.222   1.895
   50POPC   C2K 2595   2.766   6.126   2.013
   50POPC   C2L 2596   2.702   6.193   2.135
   50POPC   C2M 2597   2.705   6.098   2.255
   50POPC   C2N 2598   2.640   6.149   2.384
   50POPC   C2O 2599   2.696   6.080   2.509
   50POPC   C2P 2600   2.625   6.119   2.638
   51POPC   CN1 2601   4.028   2.390   0.160
   51POPC   CN2 2602   3.951   2.498   0.362
   51POPC   CN3 2603   3.842   2.523   0.141
   51POPC   NTM 2604   3.965   2.508   0.215
   51POPC    CA 2605   4.045   2.630   0.190
   51POPC    CB 2606   3.984   2.769   0.223
   51POPC    OA 2607   3.938   2.781   0.356
   51POPC     P 2608   3.916   2.935   0.391
   51POPC    OB 2609   3.783   2.952   0.333
   51POPC    OC 2610   4.033   2.998   0.328
   51POPC    OD 2611   3.918   2.928   0.547
   51POPC    CC 2612   4.021   2.855   0.612
   51POPC    CD 2613   3.964   2.732   0.686
   51POPC    OE 2614   3.864   2.774   0.784
   51POPC   C1A 2615   3.790   2.693   0.859
   51POPC    OF 2616   3.798   2.571   0.843
   51POPC   C1B 2617   3.713   2.771   0.959
   51POPC   C1C 2618   3.621   2.698   1.056
   51POPC   C1D 2619   3.690   2.601   1.152
   51POPC   C1E 2620   3.592   2.561   1.263
   51POPC   C1F 2621   3.644   2.437   1.334
   51POPC   C1G 2622   3.573   2.404   1.465
   51POPC   C1H 2623   3.652   2.295   1.538
   51POPC   C1I 2624   3.566   2.231   1.646
   51POPC   C1J 2625   3.558   2.270   1.773
   51POPC   C1K 2626   3.640   2.379   1.843
   51POPC   C1L 2627   3.627   2.368   1.996
   51POPC   C1M 2628   3.660   2.228   2.049
   51POPC   C1N 2629   3.670   2.218   2.202
   51POPC   C1O 2630   3.547   2.266   2.279
   51POPC   C1P 2631   3.558   2.233   2.428
   51POPC   C1Q 2632   3.680   2.295   2.497
   51POPC   C1R 2633   3.688   2.249   2.643
   51POPC    CE 2634   4.085   2.655   0.742
   51POPC    OG 2635   4.128   2.712   0.865
   51POPC   C2A 2636   4.073   2.660   0.973
   51POPC    OH 2637   4.055   2.538   0.981
   51POPC   C2B 2638   4.067   2.758   1.083
   51POPC   C2C 2639   4.075   2.701   1.223
   51POPC   C2D 2640   4.082   2.823   1.315
   51POPC   C2E 2641   4.100   2.784   1.460
   51POPC   C2F 2642   4.145   2.907   1.538
   51POPC   C2G 2643   4.149   2.873   1.686
   51POPC   C2H 2644   4.179   2.996   1.770
   51POPC   C2I 2645   4.135   2.962   1.912
   51POPC   C2J 2646   4.114   3.087   1.996
   51POPC   C2K 2647   4.026   3.049   2.115
   51POPC   C2L 2648   4.008   3.164   2.212
   51POPC   C2M 2649   3.905   3.129   2.320
   51POPC   C2N 2650   3.934   3.209   2.446
   51POPC   C2O 2651   3.829   3.195   2.556
   51POPC   C2P 2652   3.873   3.269   2.682
   52POPC   CN1 2653   2.954   2.210   0.326
   52POPC   CN2 2654   2.816   2.341   0.456
   52POPC   CN3 2655   2.784   2.341   0.211
   52POPC   NTM 2656   2.879   2.336   0.322
   52POPC    CA 2657   2.972   2.451   0.315
   52POPC    CB 2658   2.926   2.592   0.275
   52POPC    OA 2659   2.817   2.620   0.358
   52POPC     P 2660   2.781   2.771   0.374
   52POPC    OB 2661   2.642   2.743   0.341
   52POPC    OC 2662   2.864   2.842   0.277
   52POPC    OD 2663   2.809   2.806   0.524
   52POPC    CC 2664   2.933   2.771   0.587
   52POPC    CD 2665   2.930   2.635   0.658
   52POPC    OE 2666   2.838   2.638   0.769
   52POPC   C1A 2667   2.791   2.525   0.820
   52POPC    OF 2668   2.769   2.432   0.741
   52POPC   C1B 2669   2.726   2.558   0.949
   52POPC   C1C 2670   2.722   2.451   1.058
   52POPC   C1D 2671   2.848   2.409   1.135
   52POPC   C1E 2672   2.799   2.376   1.276
   52POPC   C1F 2673   2.885   2.287   1.365
   52POPC   C1G 2674   2.811   2.262   1.496
   52POPC   C1H 2675   2.873   2.145   1.573
   52POPC   C1I 2676   2.786   2.076   1.678
   52POPC   C1J 2677   2.776   2.110   1.806
   52POPC   C1K 2678   2.855   2.225   1.870
   52POPC   C1L 2679   2.860   2.215   2.023
   52POPC   C1M 2680   2.928   2.087   2.071
   52POPC   C1N 2681   2.984   2.096   2.213
   52POPC   C1O 2682   2.879   2.095   2.323
   52POPC   C1P 2683   2.944   2.070   2.460
   52POPC   C1Q 2684   3.038   2.183   2.503
   52POPC   C1R 2685   3.105   2.150   2.637
   52POPC    CE 2686   3.074   2.592   0.693
   52POPC    OG 2687   3.141   2.679   0.785
   52POPC   C2A 2688   3.111   2.660   0.913
   52POPC    OH 2689   3.053   2.558   0.949
   52POPC   C2B 2690   3.170   2.762   1.003
   52POPC   C2C 2691   3.152   2.720   1.149
   52POPC   C2D 2692   3.228   2.816   1.241
   52POPC   C2E 2693   3.204   2.776   1.386
   52POPC   C2F 2694   3.262   2.884   1.477
   52POPC   C2G 2695   3.222   2.858   1.622
   52POPC   C2H 2696   3.256   2.981   1.707
   52POPC   C2I 2697   3.216   2.959   1.853
   52POPC   C2J 2698   3.239   3.086   1.935
   52POPC   C2K 2699   3.222   3.055   2.083
   52POPC   C2L 2700   3.238   3.178   2.172
   52POPC   C2M 2701   3.238   3.133   2.318
   52POPC   C2N 2702   3.196   3.242   2.416
   52POPC   C2O 2703   3.196   3.186   2.558
   52POPC   C2P 2704   3.153   3.288   2.663
   53POPC   CN1 2705   2.434   5.116   0.202
   53POPC   CN2 2706   2.563   5.015   0.364
   53POPC   CN3 2707   2.624   4.983   0.129
   53POPC   NTM 2708   2.515   4.996   0.226
   53POPC    CA 2709   2.432   4.873   0.222
   53POPC    CB 2710   2.508   4.738   0.212
   53POPC    OA 2711   2.622   4.744   0.296
   53POPC     P 2712   2.695   4.621   0.359
   53POPC    OB 2713   2.823   4.683   0.388
   53POPC    OC 2714   2.685   4.531   0.242
   53POPC    OD 2715   2.605   4.576   0.478
   53POPC    CC 2716   2.534   4.674   0.556
   53POPC    CD 2717   2.573   4.790   0.649
   53POPC    OE 2718   2.649   4.752   0.765
   53POPC   C1A 2719   2.731   4.845   0.811
   53POPC    OF 2720   2.781   4.923   0.730
   53POPC   C1B 2721   2.780   4.810   0.947
   53POPC   C1C 2722   2.895   4.896   0.998
   53POPC   C1D 2723   2.843   5.017   1.073
   53POPC   C1E 2724   2.918   5.046   1.203
   53POPC   C1F 2725   2.830   5.139   1.286
   53POPC   C1G 2726   2.877   5.163   1.429
   53POPC   C1H 2727   2.759   5.200   1.520
   53POPC   C1I 2728   2.813   5.274   1.641
   53POPC   C1J 2729   2.770   5.279   1.766
   53POPC   C1K 2730   2.652   5.200   1.821
   53POPC   C1L 2731   2.650   5.205   1.974
   53POPC   C1M 2732   2.562   5.321   2.021
   53POPC   C1N 2733   2.504   5.301   2.161
   53POPC   C1O 2734   2.613   5.294   2.268
   53POPC   C1P 2735   2.563   5.325   2.409
   53POPC   C1Q 2736   2.478   5.215   2.472
   53POPC   C1R 2737   2.444   5.254   2.616
   53POPC    CE 2738   2.438   4.857   0.685
   53POPC    OG 2739   2.345   4.770   0.752
   53POPC   C2A 2740   2.331   4.795   0.883
   53POPC    OH 2741   2.348   4.909   0.923
   53POPC   C2B 2742   2.270   4.685   0.962
   53POPC   C2C 2743   2.274   4.706   1.115
   53POPC   C2D 2744   2.220   4.583   1.189
   53POPC   C2E 2745   2.202   4.601   1.341
   53POPC   C2F 2746   2.160   4.473   1.415
   53POPC   C2G 2747   2.134   4.494   1.566
   53POPC   C2H 2748   2.138   4.368   1.656
   53POPC   C2I 2749   2.124   4.406   1.805
   53POPC   C2J 2750   2.141   4.304   1.920
   53POPC   C2K 2751   2.149   4.383   2.053
   53POPC   C2L 2752   2.138   4.324   2.195
   53POPC   C2M 2753   2.262   4.256   2.256
   53POPC   C2N 2754   2.257   4.226   2.407
   53POPC   C2O 2755   2.373   4.135   2.453
   53POPC   C2P 2756   2.351   4.083   2.595
   54POPC   CN1 2757   3.450   3.982   0.359
   54POPC   CN2 2758   3.441   3.758   0.415
   54POPC   CN3 2759   3.462   3.816   0.183
   54POPC   NTM 2760   3.400   3.853   0.311
   54POPC    CA 2761   3.254   3.861   0.290
   54POPC    CB 2762   3.175   3.731   0.266
   54POPC    OA 2763   3.169   3.659   0.387
   54POPC     P 2764   3.144   3.505   0.374
   54POPC    OB 2765   3.266   3.464   0.303
   54POPC    OC 2766   3.015   3.500   0.303
   54POPC    OD 2767   3.135   3.462   0.526
   54POPC    CC 2768   3.104   3.559   0.628
   54POPC    CD 2769   3.223   3.632   0.693
   54POPC    OE 2770   3.297   3.552   0.788
   54POPC   C1A 2771   3.419   3.592   0.824
   54POPC    OF 2772   3.471   3.689   0.769
   54POPC   C1B 2773   3.482   3.491   0.912
   54POPC   C1C 2774   3.605   3.539   0.991
   54POPC   C1D 2775   3.568   3.602   1.125
   54POPC   C1E 2776   3.696   3.618   1.207
   54POPC   C1F 2777   3.665   3.633   1.356
   54POPC   C1G 2778   3.794   3.650   1.436
   54POPC   C1H 2779   3.763   3.666   1.585
   54POPC   C1I 2780   3.891   3.691   1.664
   54POPC   C1J 2781   3.897   3.671   1.796
   54POPC   C1K 2782   3.775   3.627   1.876
   54POPC   C1L 2783   3.782   3.660   2.027
   54POPC   C1M 2784   3.804   3.809   2.056
   54POPC   C1N 2785   3.746   3.867   2.186
   54POPC   C1O 2786   3.756   3.779   2.310
   54POPC   C1P 2787   3.711   3.856   2.435
   54POPC   C1Q 2788   3.672   3.759   2.547
   54POPC   C1R 2789   3.649   3.827   2.682
   54POPC    CE 2790   3.169   3.766   0.746
   54POPC    OG 2791   3.072   3.759   0.851
   54POPC   C2A 2792   3.119   3.770   0.975
   54POPC    OH 2793   3.239   3.784   0.999
   54POPC   C2B 2794   3.012   3.766   1.076
   54POPC   C2C 2795   3.068   3.728   1.212
   54POPC   C2D 2796   2.956   3.687   1.305
   54POPC   C2E 2797   3.015   3.645   1.439
   54POPC   C2F 2798   2.903   3.593   1.529
   54POPC   C2G 2799   2.962   3.544   1.661
   54POPC   C2H 2800   2.851   3.489   1.750
   54POPC   C2I 2801   2.916   3.420   1.869
   54POPC   C2J 2802   2.812   3.370   1.969
   54POPC   C2K 2803   2.885   3.282   2.070
   54POPC   C2L 2804   2.807   3.251   2.197
   54POPC   C2M 2805   2.877   3.132   2.262
   54POPC   C2N 2806   2.847   3.107   2.409
   54POPC   C2O 2807   2.907   2.971   2.446
   54POPC   C2P 2808   2.894   2.940   2.595
   55POPC   CN1 2809   5.094   5.275   0.254
   55POPC   CN2 2810   4.996   5.124   0.407
   55POPC   CN3 2811   5.032   5.053   0.183
   55POPC   NTM 2812   4.994   5.168   0.266
   55POPC    CA 2813   4.862   5.222   0.221
   55POPC    CB 2814   4.735   5.135   0.230
   55POPC    OA 2815   4.706   5.110   0.365
   55POPC     P 2816   4.588   5.008   0.389
   55POPC    OB 2817   4.654   4.885   0.342
   55POPC    OC 2818   4.482   5.068   0.307
   55POPC    OD 2819   4.570   5.026   0.544
   55POPC    CC 2820   4.583   5.155   0.606
   55POPC    CD 2821   4.721   5.180   0.672
   55POPC    OE 2822   4.738   5.110   0.797
   55POPC   C1A 2823   4.860   5.071   0.831
   55POPC    OF 2824   4.956   5.096   0.757
   55POPC   C1B 2825   4.857   4.983   0.951
   55POPC   C1C 2826   4.981   4.984   1.040
   55POPC   C1D 2827   4.993   5.108   1.128
   55POPC   C1E 2828   5.104   5.085   1.231
   55POPC   C1F 2829   5.116   5.199   1.332
   55POPC   C1G 2830   5.220   5.163   1.438
   55POPC   C1H 2831   5.228   5.266   1.550
   55POPC   C1I 2832   5.332   5.222   1.654
   55POPC   C1J 2833   5.305   5.223   1.785
   55POPC   C1K 2834   5.170   5.270   1.839
   55POPC   C1L 2835   5.172   5.307   1.988
   55POPC   C1M 2836   5.266   5.425   2.019
   55POPC   C1N 2837   5.252   5.480   2.162
   55POPC   C1O 2838   5.286   5.379   2.272
   55POPC   C1P 2839   5.299   5.446   2.409
   55POPC   C1Q 2840   5.168   5.509   2.459
   55POPC   C1R 2841   5.190   5.581   2.593
   55POPC    CE 2842   4.748   5.332   0.678
   55POPC    OG 2843   4.660   5.411   0.760
   55POPC   C2A 2844   4.706   5.437   0.883
   55POPC    OH 2845   4.827   5.439   0.904
   55POPC   C2B 2846   4.603   5.494   0.972
   55POPC   C2C 2847   4.625   5.455   1.118
   55POPC   C2D 2848   4.513   5.506   1.209
   55POPC   C2E 2849   4.546   5.471   1.354
   55POPC   C2F 2850   4.437   5.509   1.454
   55POPC   C2G 2851   4.483   5.469   1.595
   55POPC   C2H 2852   4.377   5.493   1.702
   55POPC   C2I 2853   4.422   5.441   1.839
   55POPC   C2J 2854   4.310   5.453   1.941
   55POPC   C2K 2855   4.339   5.385   2.075
   55POPC   C2L 2856   4.215   5.389   2.164
   55POPC   C2M 2857   4.233   5.314   2.296
   55POPC   C2N 2858   4.106   5.323   2.380
   55POPC   C2O 2859   4.124   5.262   2.519
   55POPC   C2P 2860   4.004   5.293   2.609
   56POPC   CN1 2861   2.961   6.259   0.255
   56POPC   CN2 2862   2.842   6.114   0.392
   56POPC   CN3 2863   2.822   6.092   0.153
   56POPC   NTM 2864   2.834   6.186   0.264
   56POPC    CA 2865   2.717   6.278   0.263
   56POPC    CB 2866   2.573   6.220   0.269
   56POPC    OA 2867   2.555   6.146   0.388
   56POPC     P 2868   2.421   6.064   0.396
   56POPC    OB 2869   2.452   5.958   0.300
   56POPC    OC 2870   2.320   6.165   0.359
   56POPC    OD 2871   2.422   6.029   0.550
   56POPC    CC 2872   2.460   6.131   0.644
   56POPC    CD 2873   2.604   6.117   0.699
   56POPC    OE 2874   2.619   6.006   0.791
   56POPC   C1A 2875   2.742   5.959   0.811
   56POPC    OF 2876   2.839   6.015   0.759
   56POPC   C1B 2877   2.745   5.834   0.889
   56POPC   C1C 2878   2.874   5.812   0.968
   56POPC   C1D 2879   2.869   5.878   1.105
   56POPC   C1E 2880   2.979   5.825   1.197
   56POPC   C1F 2881   2.957   5.878   1.339
   56POPC   C1G 2882   3.045   5.813   1.447
   56POPC   C1H 2883   3.157   5.898   1.508
   56POPC   C1I 2884   3.267   5.818   1.578
   56POPC   C1J 2885   3.275   5.776   1.704
   56POPC   C1K 2886   3.173   5.804   1.814
   56POPC   C1L 2887   3.213   5.749   1.953
   56POPC   C1M 2888   3.363   5.753   1.986
   56POPC   C1N 2889   3.401   5.799   2.127
   56POPC   C1O 2890   3.338   5.724   2.244
   56POPC   C1P 2891   3.376   5.798   2.373
   56POPC   C1Q 2892   3.299   5.748   2.495
   56POPC   C1R 2893   3.330   5.835   2.617
   56POPC    CE 2894   2.651   6.255   0.749
   56POPC    OG 2895   2.590   6.303   0.870
   56POPC   C2A 2896   2.658   6.278   0.982
   56POPC    OH 2897   2.777   6.248   0.983
   56POPC   C2B 2898   2.578   6.312   1.102
   56POPC   C2C 2899   2.610   6.220   1.220
   56POPC   C2D 2900   2.513   6.249   1.335
   56POPC   C2E 2901   2.541   6.162   1.458
   56POPC   C2F 2902   2.435   6.189   1.565
   56POPC   C2G 2903   2.462   6.109   1.693
   56POPC   C2H 2904   2.357   6.139   1.799
   56POPC   C2I 2905   2.377   6.046   1.919
   56POPC   C2J 2906   2.271   6.067   2.027
   56POPC   C2K 2907   2.270   5.945   2.119
   56POPC   C2L 2908   2.168   5.956   2.232
   56POPC   C2M 2909   2.150   5.820   2.299
   56POPC   C2N 2910   2.076   5.834   2.432
   56POPC   C2O 2911   2.068   5.700   2.504
   56POPC   C2P 2912   2.025   5.720   2.649
   57POPC   CN1 2913   3.949   5.653   0.315
   57POPC   CN2 2914   3.868   5.483   0.456
   57POPC   CN3 2915   3.981   5.423   0.253
   57POPC   NTM 2916   3.889   5.519   0.314
   57POPC    CA 2917   3.764   5.527   0.235
   57POPC    CB 2918   3.659   5.414   0.241
   57POPC    OA 2919   3.587   5.413   0.362
   57POPC     P 2920   3.518   5.275   0.389
   57POPC    OB 2921   3.627   5.182   0.354
   57POPC    OC 2922   3.404   5.281   0.295
   57POPC    OD 2923   3.484   5.275   0.541
   57POPC    CC 2924   3.461   5.399   0.611
   57POPC    CD 2925   3.579   5.456   0.693
   57POPC    OE 2926   3.616   5.366   0.800
   57POPC   C1A 2927   3.741   5.367   0.844
   57POPC    OF 2928   3.829   5.416   0.772
   57POPC   C1B 2929   3.758   5.266   0.952
   57POPC   C1C 2930   3.870   5.294   1.051
   57POPC   C1D 2931   3.837   5.408   1.147
   57POPC   C1E 2932   3.941   5.415   1.258
   57POPC   C1F 2933   3.897   5.516   1.363
   57POPC   C1G 2934   3.995   5.521   1.480
   57POPC   C1H 2935   3.938   5.609   1.591
   57POPC   C1I 2936   4.047   5.638   1.694
   57POPC   C1J 2937   4.032   5.617   1.824
   57POPC   C1K 2938   3.904   5.562   1.888
   57POPC   C1L 2939   3.909   5.570   2.041
   57POPC   C1M 2940   3.919   5.714   2.092
   57POPC   C1N 2941   3.888   5.737   2.240
   57POPC   C1O 2942   3.978   5.660   2.337
   57POPC   C1P 2943   3.975   5.716   2.480
   57POPC   C1Q 2944   3.834   5.730   2.538
   57POPC   C1R 2945   3.838   5.786   2.680
   57POPC    CE 2946   3.556   5.605   0.733
   57POPC    OG 2947   3.462   5.647   0.833
   57POPC   C2A 2948   3.508   5.663   0.958
   57POPC    OH 2949   3.620   5.621   0.989
   57POPC   C2B 2950   3.411   5.724   1.053
   57POPC   C2C 2951   3.423   5.675   1.198
   57POPC   C2D 2952   3.285   5.635   1.252
   57POPC   C2E 2953   3.293   5.559   1.386
   57POPC   C2F 2954   3.163   5.493   1.436
   57POPC   C2G 2955   3.180   5.427   1.574
   57POPC   C2H 2956   3.084   5.476   1.684
   57POPC   C2I 2957   3.109   5.401   1.816
   57POPC   C2J 2958   3.025   5.444   1.937
   57POPC   C2K 2959   3.062   5.354   2.056
   57POPC   C2L 2960   2.985   5.380   2.186
   57POPC   C2M 2961   3.013   5.263   2.281
   57POPC   C2N 2962   2.943   5.276   2.416
   57POPC   C2O 2963   2.943   5.143   2.491
   57POPC   C2P 2964   2.860   5.151   2.619
   58POPC   CN1 2965   0.938   5.106   0.226
   58POPC   CN2 2966   0.891   5.256   0.400
   58POPC   CN3 2967   0.812   5.309   0.180
   58POPC   NTM 2968   0.922   5.249   0.255
   58POPC    CA 2969   1.052   5.314   0.225
   58POPC    CB 2970   1.068   5.468   0.234
   58POPC    OA 2971   0.996   5.520   0.344
   58POPC     P 2972   1.017   5.673   0.375
   58POPC    OB 2973   0.878   5.721   0.365
   58POPC    OC 2974   1.112   5.717   0.273
   58POPC    OD 2975   1.070   5.672   0.524
   58POPC    CC 2976   1.168   5.580   0.573
   58POPC    CD 2977   1.112   5.457   0.649
   58POPC    OE 2978   1.035   5.489   0.767
   58POPC   C1A 2979   0.960   5.392   0.817
   58POPC    OF 2980   0.905   5.311   0.742
   58POPC   C1B 2981   0.929   5.421   0.959
   58POPC   C1C 2982   0.841   5.319   1.031
   58POPC   C1D 2983   0.927   5.250   1.136
   58POPC   C1E 2984   0.841   5.187   1.245
   58POPC   C1F 2985   0.930   5.121   1.349
   58POPC   C1G 2986   0.846   5.063   1.462
   58POPC   C1H 2987   0.933   4.993   1.566
   58POPC   C1I 2988   0.844   4.933   1.675
   58POPC   C1J 2989   0.862   4.965   1.803
   58POPC   C1K 2990   0.975   5.059   1.847
   58POPC   C1L 2991   1.014   5.044   1.994
   58POPC   C1M 2992   1.066   4.903   2.027
   58POPC   C1N 2993   1.129   4.889   2.166
   58POPC   C1O 2994   1.033   4.921   2.280
   58POPC   C1P 2995   1.081   4.865   2.415
   58POPC   C1Q 2996   1.210   4.932   2.465
   58POPC   C1R 2997   1.249   4.873   2.601
   58POPC    CE 2998   1.228   5.361   0.679
   58POPC    OG 2999   1.334   5.405   0.765
   58POPC   C2A 3000   1.335   5.350   0.886
   58POPC    OH 3001   1.240   5.286   0.930
   58POPC   C2B 3002   1.453   5.391   0.966
   58POPC   C2C 3003   1.419   5.398   1.115
   58POPC   C2D 3004   1.531   5.461   1.197
   58POPC   C2E 3005   1.487   5.469   1.343
   58POPC   C2F 3006   1.593   5.538   1.430
   58POPC   C2G 3007   1.541   5.551   1.573
   58POPC   C2H 3008   1.641   5.624   1.663
   58POPC   C2I 3009   1.575   5.652   1.798
   58POPC   C2J 3010   1.668   5.726   1.893
   58POPC   C2K 3011   1.590   5.767   2.018
   58POPC   C2L 3012   1.679   5.833   2.123
   58POPC   C2M 3013   1.593   5.876   2.243
   58POPC   C2N 3014   1.679   5.929   2.357
   58POPC   C2O 3015   1.592   5.970   2.476
   58POPC   C2P 3016   1.678   6.014   2.594
   59POPC   CN1 3017   6.120   5.294   0.261
   59POPC   CN2 3018   5.928   5.339   0.392
   59POPC   CN3 3019   5.906   5.329   0.155
   59POPC   NTM 3020   5.995   5.371   0.264
   59POPC    CA 3021   6.030   5.515   0.248
   59POPC    CB 3022   5.918   5.622   0.253
   59POPC    OA 3023   5.862   5.623   0.382
   59POPC     P 3024   5.732   5.711   0.395
   59POPC    OB 3025   5.645   5.619   0.320
   59POPC    OC 3026   5.781   5.836   0.334
   59POPC    OD 3027   5.719   5.709   0.552
   59POPC    CC 3028   5.835   5.715   0.637
   59POPC    CD 3029   5.876   5.576   0.692
   59POPC    OE 3030   5.789   5.528   0.796
   59POPC   C1A 3031   5.769   5.398   0.808
   59POPC    OF 3032   5.820   5.320   0.726
   59POPC   C1B 3033   5.663   5.370   0.907
   59POPC   C1C 3034   5.671   5.237   0.982
   59POPC   C1D 3035   5.777   5.235   1.093
   59POPC   C1E 3036   5.756   5.110   1.178
   59POPC   C1F 3037   5.851   5.103   1.298
   59POPC   C1G 3038   5.815   4.982   1.384
   59POPC   C1H 3039   5.897   4.974   1.513
   59POPC   C1I 3040   5.853   4.852   1.594
   59POPC   C1J 3041   5.824   4.860   1.723
   59POPC   C1K 3042   5.834   4.993   1.800
   59POPC   C1L 3043   5.843   4.975   1.952
   59POPC   C1M 3044   5.968   4.899   1.997
   59POPC   C1N 3045   5.993   4.903   2.148
   59POPC   C1O 3046   5.882   4.837   2.232
   59POPC   C1P 3047   5.924   4.818   2.378
   59POPC   C1Q 3048   5.950   4.949   2.452
   59POPC   C1R 3049   5.999   4.923   2.595
   59POPC    CE 3050   6.026   5.578   0.726
   59POPC    OG 3051   6.069   5.663   0.833
   59POPC   C2A 3052   6.080   5.603   0.952
   59POPC    OH 3053   6.097   5.482   0.959
   59POPC   C2B 3054   6.101   5.700   1.062
   59POPC   C2C 3055   6.039   5.653   1.194
   59POPC   C2D 3056   6.053   5.761   1.301
   59POPC   C2E 3057   5.996   5.713   1.435
   59POPC   C2F 3058   6.001   5.823   1.542
   59POPC   C2G 3059   5.944   5.770   1.673
   59POPC   C2H 3060   5.937   5.877   1.782
   59POPC   C2I 3061   5.869   5.818   1.906
   59POPC   C2J 3062   5.849   5.921   2.018
   59POPC   C2K 3063   5.765   5.859   2.130
   59POPC   C2L 3064   5.738   5.958   2.243
   59POPC   C2M 3065   5.642   5.897   2.345
   59POPC   C2N 3066   5.618   5.991   2.463
   59POPC   C2O 3067   5.517   5.931   2.561
   59POPC   C2P 3068   5.497   6.023   2.682
   60POPC   CN1 3069   0.838   1.645   0.330
   60POPC   CN2 3070   1.034   1.656   0.455
   60POPC   CN3 3071   1.040   1.708   0.222
   60POPC   NTM 3072   0.981   1.618   0.322
   60POPC    CA 3073   1.002   1.474   0.288
   60POPC    CB 3074   1.143   1.414   0.269
   60POPC    OA 3075   1.219   1.451   0.381
   60POPC     P 3076   1.359   1.390   0.416
   60POPC    OB 3077   1.401   1.516   0.475
   60POPC    OC 3078   1.398   1.355   0.278
   60POPC    OD 3079   1.281   1.274   0.492
   60POPC    CC 3080   1.279   1.279   0.637
   60POPC    CD 3081   1.189   1.381   0.710
   60POPC    OE 3082   1.266   1.467   0.796
   60POPC   C1A 3083   1.218   1.587   0.829
   60POPC    OF 3084   1.127   1.635   0.759
   60POPC   C1B 3085   1.304   1.658   0.926
   60POPC   C1C 3086   1.230   1.747   1.027
   60POPC   C1D 3087   1.151   1.671   1.133
   60POPC   C1E 3088   1.101   1.771   1.237
   60POPC   C1F 3089   1.028   1.706   1.355
   60POPC   C1G 3090   1.006   1.813   1.461
   60POPC   C1H 3091   0.953   1.755   1.592
   60POPC   C1I 3092   0.991   1.852   1.704
   60POPC   C1J 3093   1.003   1.812   1.830
   60POPC   C1K 3094   0.970   1.669   1.876
   60POPC   C1L 3095   0.925   1.676   2.022
   60POPC   C1M 3096   0.867   1.547   2.082
   60POPC   C1N 3097   0.798   1.572   2.217
   60POPC   C1O 3098   0.891   1.633   2.322
   60POPC   C1P 3099   0.826   1.657   2.459
   60POPC   C1Q 3100   0.827   1.531   2.546
   60POPC   C1R 3101   0.804   1.566   2.693
   60POPC    CE 3102   1.058   1.321   0.767
   60POPC    OG 3103   1.040   1.214   0.862
   60POPC   C2A 3104   0.988   1.244   0.984
   60POPC    OH 3105   0.957   1.361   1.005
   60POPC   C2B 3106   0.950   1.128   1.072
   60POPC   C2C 3107   0.954   1.144   1.226
   60POPC   C2D 3108   0.994   1.018   1.308
   60POPC   C2E 3109   1.058   1.045   1.447
   60POPC   C2F 3110   1.173   0.952   1.495
   60POPC   C2G 3111   1.234   0.996   1.631
   60POPC   C2H 3112   1.339   0.907   1.701
   60POPC   C2I 3113   1.372   0.959   1.843
   60POPC   C2J 3114   1.459   0.868   1.932
   60POPC   C2K 3115   1.481   0.924   2.074
   60POPC   C2L 3116   1.565   0.831   2.164
   60POPC   C2M 3117   1.586   0.888   2.305
   60POPC   C2N 3118   1.679   0.805   2.395
   60POPC   C2O 3119   1.716   0.885   2.520
   60POPC   C2P 3120   1.796   0.804   2.622
   61POPC   CN1 3121   3.748   2.244   0.366
   61POPC   CN2 3122   3.784   2.035   0.457
   61POPC   CN3 3123   3.794   2.059   0.219
   61POPC   NTM 3124   3.725   2.103   0.341
   61POPC    CA 3125   3.578   2.089   0.330
   61POPC    CB 3126   3.514   1.953   0.303
   61POPC    OA 3127   3.538   1.882   0.420
   61POPC     P 3128   3.521   1.729   0.411
   61POPC    OB 3129   3.649   1.710   0.339
   61POPC    OC 3130   3.397   1.717   0.335
   61POPC    OD 3131   3.520   1.691   0.563
   61POPC    CC 3132   3.450   1.775   0.658
   61POPC    CD 3133   3.539   1.885   0.721
   61POPC    OE 3134   3.645   1.828   0.801
   61POPC   C1A 3135   3.755   1.898   0.823
   61POPC    OF 3136   3.792   1.974   0.733
   61POPC   C1B 3137   3.846   1.817   0.905
   61POPC   C1C 3138   3.917   1.884   1.022
   61POPC   C1D 3139   3.832   1.899   1.147
   61POPC   C1E 3140   3.933   1.926   1.257
   61POPC   C1F 3141   3.874   1.954   1.394
   61POPC   C1G 3142   3.995   1.983   1.481
   61POPC   C1H 3143   3.960   2.025   1.622
   61POPC   C1I 3144   4.089   2.070   1.689
   61POPC   C1J 3145   4.103   2.048   1.818
   61POPC   C1K 3146   3.992   1.974   1.893
   61POPC   C1L 3147   4.014   1.969   2.044
   61POPC   C1M 3148   4.029   2.109   2.103
   61POPC   C1N 3149   4.016   2.113   2.255
   61POPC   C1O 3150   4.130   2.042   2.328
   61POPC   C1P 3151   4.120   2.061   2.479
   61POPC   C1Q 3152   4.000   1.988   2.540
   61POPC   C1R 3153   3.995   2.013   2.691
   61POPC    CE 3154   3.453   1.997   0.780
   61POPC    OG 3155   3.359   1.957   0.879
   61POPC   C2A 3156   3.405   1.961   1.004
   61POPC    OH 3157   3.517   2.004   1.033
   61POPC   C2B 3158   3.307   1.906   1.100
   61POPC   C2C 3159   3.380   1.849   1.221
   61POPC   C2D 3160   3.277   1.793   1.318
   61POPC   C2E 3161   3.348   1.758   1.448
   61POPC   C2F 3162   3.248   1.696   1.545
   61POPC   C2G 3163   3.320   1.671   1.677
   61POPC   C2H 3164   3.229   1.603   1.778
   61POPC   C2I 3165   3.319   1.558   1.892
   61POPC   C2J 3166   3.246   1.487   2.006
   61POPC   C2K 3167   3.356   1.433   2.097
   61POPC   C2L 3168   3.305   1.379   2.230
   61POPC   C2M 3169   3.419   1.313   2.306
   61POPC   C2N 3170   3.375   1.270   2.445
   61POPC   C2O 3171   3.477   1.179   2.512
   61POPC   C2P 3172   3.429   1.119   2.645
   62POPC   CN1 3173   5.944   0.185   0.253
   62POPC   CN2 3174   5.779   0.114   0.400
   62POPC   CN3 3175   5.782   0.023   0.182
   62POPC   NTM 3176   5.804   0.147   0.259
   62POPC    CA 3177   5.720   0.257   0.206
   62POPC    CB 3178   5.567   0.241   0.200
   62POPC    OA 3179   5.505   0.267   0.324
   62POPC     P 3180   5.387   0.163   0.357
   62POPC    OB 3181   5.472   0.043   0.352
   62POPC    OC 3182   5.314   0.208   0.237
   62POPC    OD 3183   5.353   0.228   0.497
   62POPC    CC 3184   5.437   0.308   0.583
   62POPC    CD 3185   5.572   0.271   0.644
   62POPC    OE 3186   5.558   0.179   0.753
   62POPC   C1A 3187   5.662   0.107   0.792
   62POPC    OF 3188   5.764   0.105   0.722
   62POPC   C1B 3189   5.618   0.010   0.895
   62POPC   C1C 3190   5.722  -0.030   0.999
   62POPC   C1D 3191   5.756   0.079   1.101
   62POPC   C1E 3192   5.841   0.012   1.208
   62POPC   C1F 3193   5.876   0.102   1.326
   62POPC   C1G 3194   5.955   0.017   1.425
   62POPC   C1H 3195   5.978   0.089   1.557
   62POPC   C1I 3196   6.052  -0.004   1.653
   62POPC   C1J 3197   6.034   0.005   1.784
   62POPC   C1K 3198   5.944   0.113   1.845
   62POPC   C1L 3199   5.940   0.112   1.999
   62POPC   C1M 3200   6.080   0.110   2.063
   62POPC   C1N 3201   6.087   0.173   2.202
   62POPC   C1O 3202   6.030   0.088   2.315
   62POPC   C1P 3203   6.055   0.152   2.452
   62POPC   C1Q 3204   5.975   0.282   2.472
   62POPC   C1R 3205   5.985   0.330   2.617
   62POPC    CE 3206   5.647   0.403   0.671
   62POPC    OG 3207   5.583   0.511   0.741
   62POPC   C2A 3208   5.578   0.499   0.874
   62POPC    OH 3209   5.650   0.416   0.930
   62POPC   C2B 3210   5.504   0.607   0.944
   62POPC   C2C 3211   5.539   0.615   1.093
   62POPC   C2D 3212   5.426   0.678   1.175
   62POPC   C2E 3213   5.456   0.672   1.325
   62POPC   C2F 3214   5.340   0.723   1.411
   62POPC   C2G 3215   5.374   0.707   1.560
   62POPC   C2H 3216   5.268   0.765   1.655
   62POPC   C2I 3217   5.296   0.717   1.797
   62POPC   C2J 3218   5.193   0.768   1.899
   62POPC   C2K 3219   5.198   0.682   2.025
   62POPC   C2L 3220   5.112   0.737   2.139
   62POPC   C2M 3221   5.115   0.642   2.259
   62POPC   C2N 3222   5.056   0.709   2.383
   62POPC   C2O 3223   5.059   0.613   2.503
   62POPC   C2P 3224   5.012   0.683   2.631
   63POPC   CN1 3225   1.443   1.028   0.352
   63POPC   CN2 3226   1.626   1.108   0.473
   63POPC   CN3 3227   1.638   1.116   0.236
   63POPC   NTM 3228   1.588   1.037   0.349
   63POPC    CA 3229   1.636   0.896   0.346
   63POPC    CB 3230   1.786   0.862   0.328
   63POPC    OA 3231   1.856   0.953   0.409
   63POPC     P 3232   2.010   0.934   0.429
   63POPC    OB 3233   2.029   1.067   0.484
   63POPC    OC 3234   2.046   0.906   0.289
   63POPC    OD 3235   1.998   0.817   0.533
   63POPC    CC 3236   1.975   0.838   0.674
   63POPC    CD 3237   1.878   0.944   0.731
   63POPC    OE 3238   1.935   1.023   0.839
   63POPC   C1A 3239   1.909   1.154   0.841
   63POPC    OF 3240   1.827   1.194   0.758
   63POPC   C1B 3241   1.957   1.228   0.961
   63POPC   C1C 3242   1.881   1.353   1.009
   63POPC   C1D 3243   1.859   1.344   1.161
   63POPC   C1E 3244   1.756   1.435   1.230
   63POPC   C1F 3245   1.735   1.382   1.373
   63POPC   C1G 3246   1.652   1.462   1.473
   63POPC   C1H 3247   1.656   1.391   1.609
   63POPC   C1I 3248   1.615   1.481   1.726
   63POPC   C1J 3249   1.643   1.446   1.852
   63POPC   C1K 3250   1.718   1.316   1.880
   63POPC   C1L 3251   1.768   1.296   2.024
   63POPC   C1M 3252   1.653   1.277   2.122
   63POPC   C1N 3253   1.687   1.211   2.256
   63POPC   C1O 3254   1.769   1.291   2.357
   63POPC   C1P 3255   1.692   1.314   2.488
   63POPC   C1Q 3256   1.748   1.235   2.606
   63POPC   C1R 3257   1.669   1.264   2.734
   63POPC    CE 3258   1.746   0.873   0.766
   63POPC    OG 3259   1.768   0.764   0.854
   63POPC   C2A 3260   1.738   0.785   0.981
   63POPC    OH 3261   1.623   0.822   1.005
   63POPC   C2B 3262   1.824   0.704   1.071
   63POPC   C2C 3263   1.862   0.763   1.206
   63POPC   C2D 3264   1.926   0.655   1.292
   63POPC   C2E 3265   1.953   0.711   1.431
   63POPC   C2F 3266   2.024   0.610   1.521
   63POPC   C2G 3267   2.043   0.674   1.658
   63POPC   C2H 3268   2.140   0.595   1.745
   63POPC   C2I 3269   2.159   0.666   1.878
   63POPC   C2J 3270   2.286   0.618   1.948
   63POPC   C2K 3271   2.301   0.685   2.084
   63POPC   C2L 3272   2.430   0.641   2.152
   63POPC   C2M 3273   2.438   0.701   2.291
   63POPC   C2N 3274   2.559   0.650   2.369
   63POPC   C2O 3275   2.557   0.710   2.509
   63POPC   C2P 3276   2.670   0.658   2.599
   64POPC   CN1 3277   5.326   1.677   0.298
   64POPC   CN2 3278   5.208   1.829   0.428
   64POPC   CN3 3279   5.174   1.826   0.189
   64POPC   NTM 3280   5.273   1.811   0.297
   64POPC    CA 3281   5.392   1.895   0.274
   64POPC    CB 3282   5.372   2.046   0.265
   64POPC    OA 3283   5.319   2.091   0.388
   64POPC     P 3284   5.317   2.245   0.396
   64POPC    OB 3285   5.207   2.275   0.301
   64POPC    OC 3286   5.455   2.275   0.354
   64POPC    OD 3287   5.297   2.273   0.547
   64POPC    CC 3288   5.380   2.203   0.640
   64POPC    CD 3289   5.305   2.086   0.706
   64POPC    OE 3290   5.213   2.132   0.806
   64POPC   C1A 3291   5.104   2.058   0.823
   64POPC    OF 3292   5.092   1.954   0.758
   64POPC   C1B 3293   5.003   2.124   0.907
   64POPC   C1C 3294   4.912   2.026   0.979
   64POPC   C1D 3295   4.956   2.009   1.123
   64POPC   C1E 3296   4.841   1.945   1.199
   64POPC   C1F 3297   4.874   1.938   1.347
   64POPC   C1G 3298   4.773   1.846   1.414
   64POPC   C1H 3299   4.809   1.830   1.562
   64POPC   C1I 3300   4.727   1.720   1.628
   64POPC   C1J 3301   4.712   1.722   1.760
   64POPC   C1K 3302   4.781   1.832   1.839
   64POPC   C1L 3303   4.760   1.833   1.991
   64POPC   C1M 3304   4.770   1.693   2.054
   64POPC   C1N 3305   4.833   1.683   2.193
   64POPC   C1O 3306   4.785   1.775   2.305
   64POPC   C1P 3307   4.836   1.721   2.438
   64POPC   C1Q 3308   4.829   1.825   2.550
   64POPC   C1R 3309   4.858   1.762   2.687
   64POPC    CE 3310   5.400   1.974   0.751
   64POPC    OG 3311   5.490   2.007   0.857
   64POPC   C2A 3312   5.445   1.980   0.980
   64POPC    OH 3313   5.365   1.889   0.998
   64POPC   C2B 3314   5.533   2.041   1.082
   64POPC   C2C 3315   5.469   2.065   1.219
   64POPC   C2D 3316   5.573   2.129   1.311
   64POPC   C2E 3317   5.521   2.146   1.454
   64POPC   C2F 3318   5.617   2.226   1.543
   64POPC   C2G 3319   5.545   2.271   1.670
   64POPC   C2H 3320   5.630   2.356   1.765
   64POPC   C2I 3321   5.537   2.441   1.852
   64POPC   C2J 3322   5.596   2.493   1.984
   64POPC   C2K 3323   5.486   2.558   2.069
   64POPC   C2L 3324   5.534   2.599   2.209
   64POPC   C2M 3325   5.419   2.653   2.294
   64POPC   C2N 3326   5.470   2.708   2.427
   64POPC   C2O 3327   5.357   2.772   2.508
   64POPC   C2P 3328   5.412   2.841   2.634
   65POPC   CN1 3329   3.054   4.192   5.791
   65POPC   CN2 3330   2.917   4.286   5.624
   65POPC   CN3 3331   2.955   4.404   5.828
   65POPC   NTM 3332   2.932   4.271   5.771
   65POPC    CA 3333   2.817   4.207   5.839
   65POPC    CB 3334   2.667   4.234   5.809
   65POPC    OA 3335   2.627   4.173   5.689
   65POPC     P 3336   2.471   4.192   5.659
   65POPC    OB 3337   2.459   4.336   5.672
   65POPC    OC 3338   2.427   4.117   5.779
   65POPC    OD 3339   2.462   4.144   5.510
   65POPC    CC 3340   2.568   4.082   5.435
   65POPC    CD 3341   2.687   4.159   5.375
   65POPC    OE 3342   2.652   4.242   5.263
   65POPC   C1A 3343   2.743   4.319   5.207
   65POPC    OF 3344   2.844   4.354   5.271
   65POPC   C1B 3345   2.695   4.364   5.075
   65POPC   C1C 3346   2.773   4.478   5.014
   65POPC   C1D 3347   2.887   4.425   4.928
   65POPC   C1E 3348   2.901   4.517   4.807
   65POPC   C1F 3349   2.996   4.460   4.702
   65POPC   C1G 3350   3.003   4.557   4.584
   65POPC   C1H 3351   3.098   4.507   4.474
   65POPC   C1I 3352   3.131   4.619   4.375
   65POPC   C1J 3353   3.111   4.608   4.244
   65POPC   C1K 3354   3.049   4.481   4.185
   65POPC   C1L 3355   3.077   4.456   4.036
   65POPC   C1M 3356   3.224   4.424   4.006
   65POPC   C1N 3357   3.250   4.387   3.860
   65POPC   C1O 3358   3.211   4.498   3.762
   65POPC   C1P 3359   3.274   4.482   3.623
   65POPC   C1Q 3360   3.240   4.350   3.554
   65POPC   C1R 3361   3.291   4.347   3.410
   65POPC    CE 3362   2.804   4.061   5.348
   65POPC    OG 3363   2.802   3.955   5.252
   65POPC   C2A 3364   2.834   3.986   5.125
   65POPC    OH 3365   2.919   4.073   5.105
   65POPC   C2B 3366   2.793   3.881   5.027
   65POPC   C2C 3367   2.819   3.901   4.877
   65POPC   C2D 3368   2.742   3.798   4.790
   65POPC   C2E 3369   2.755   3.826   4.639
   65POPC   C2F 3370   2.679   3.733   4.544
   65POPC   C2G 3371   2.657   3.800   4.407
   65POPC   C2H 3372   2.614   3.702   4.296
   65POPC   C2I 3373   2.555   3.775   4.175
   65POPC   C2J 3374   2.527   3.683   4.055
   65POPC   C2K 3375   2.419   3.741   3.963
   65POPC   C2L 3376   2.401   3.667   3.830
   65POPC   C2M 3377   2.286   3.732   3.751
   65POPC   C2N 3378   2.278   3.685   3.606
   65POPC   C2O 3379   2.176   3.769   3.528
   65POPC   C2P 3380   2.190   3.751   3.377
   66POPC   CN1 3381   3.193   3.444   5.701
   66POPC   CN2 3382   3.035   3.589   5.612
   66POPC   CN3 3383   3.092   3.611   5.843
   66POPC   NTM 3384   3.070   3.515   5.735
   66POPC    CA 3385   2.978   3.409   5.782
   66POPC    CB 3386   2.825   3.418   5.768
   66POPC    OA 3387   2.793   3.435   5.633
   66POPC     P 3388   2.652   3.493   5.590
   66POPC    OB 3389   2.703   3.625   5.552
   66POPC    OC 3390   2.584   3.476   5.720
   66POPC    OD 3391   2.618   3.404   5.468
   66POPC    CC 3392   2.718   3.350   5.382
   66POPC    CD 3393   2.851   3.415   5.334
   66POPC    OE 3394   2.845   3.502   5.219
   66POPC   C1A 3395   2.957   3.564   5.180
   66POPC    OF 3396   3.045   3.588   5.264
   66POPC   C1B 3397   2.959   3.585   5.033
   66POPC   C1C 3398   3.084   3.642   4.964
   66POPC   C1D 3399   3.057   3.634   4.814
   66POPC   C1E 3400   3.136   3.731   4.725
   66POPC   C1F 3401   3.260   3.665   4.664
   66POPC   C1G 3402   3.270   3.693   4.514
   66POPC   C1H 3403   3.378   3.608   4.447
   66POPC   C1I 3404   3.435   3.681   4.325
   66POPC   C1J 3405   3.417   3.648   4.197
   66POPC   C1K 3406   3.338   3.528   4.147
   66POPC   C1L 3407   3.309   3.536   3.996
   66POPC   C1M 3408   3.279   3.397   3.940
   66POPC   C1N 3409   3.220   3.383   3.799
   66POPC   C1O 3410   3.280   3.477   3.693
   66POPC   C1P 3411   3.246   3.437   3.548
   66POPC   C1Q 3412   3.275   3.290   3.516
   66POPC   C1R 3413   3.277   3.263   3.365
   66POPC    CE 3414   2.938   3.292   5.306
   66POPC    OG 3415   2.873   3.199   5.218
   66POPC   C2A 3416   2.876   3.230   5.089
   66POPC    OH 3417   2.977   3.282   5.043
   66POPC   C2B 3418   2.773   3.157   5.011
   66POPC   C2C 3419   2.813   3.155   4.863
   66POPC   C2D 3420   2.714   3.084   4.772
   66POPC   C2E 3421   2.770   3.095   4.631
   66POPC   C2F 3422   2.677   3.036   4.526
   66POPC   C2G 3423   2.737   3.039   4.385
   66POPC   C2H 3424   2.634   2.978   4.290
   66POPC   C2I 3425   2.661   2.978   4.138
   66POPC   C2J 3426   2.524   2.958   4.071
   66POPC   C2K 3427   2.513   2.983   3.920
   66POPC   C2L 3428   2.367   3.009   3.878
   66POPC   C2M 3429   2.369   3.068   3.736
   66POPC   C2N 3430   2.234   3.072   3.664
   66POPC   C2O 3431   2.259   3.124   3.522
   66POPC   C2P 3432   2.142   3.093   3.429
   67POPC   CN1 3433   2.574   6.222   5.785
   67POPC   CN2 3434   2.413   6.282   5.625
   67POPC   CN3 3435   2.376   6.346   5.852
   67POPC   NTM 3436   2.430   6.240   5.766
   67POPC    CA 3437   2.367   6.109   5.795
   67POPC    CB 3438   2.214   6.092   5.783
   67POPC    OA 3439   2.175   6.108   5.649
   67POPC     P 3440   2.035   6.171   5.613
   67POPC    OB 3441   2.068   6.311   5.588
   67POPC    OC 3442   1.959   6.139   5.736
   67POPC    OD 3443   1.997   6.071   5.496
   67POPC    CC 3444   2.094   6.002   5.413
   67POPC    CD 3445   2.212   6.070   5.339
   67POPC    OE 3446   2.175   6.145   5.222
   67POPC   C1A 3447   2.265   6.228   5.170
   67POPC    OF 3448   2.364   6.262   5.237
   67POPC   C1B 3449   2.215   6.291   5.046
   67POPC   C1C 3450   2.322   6.348   4.953
   67POPC   C1D 3451   2.394   6.243   4.868
   67POPC   C1E 3452   2.478   6.318   4.764
   67POPC   C1F 3453   2.544   6.224   4.663
   67POPC   C1G 3454   2.616   6.308   4.558
   67POPC   C1H 3455   2.681   6.222   4.449
   67POPC   C1I 3456   2.749   6.311   4.345
   67POPC   C1J 3457   2.712   6.307   4.217
   67POPC   C1K 3458   2.604   6.210   4.169
   67POPC   C1L 3459   2.603   6.192   4.017
   67POPC   C1M 3460   2.723   6.111   3.967
   67POPC   C1N 3461   2.722   6.087   3.816
   67POPC   C1O 3462   2.756   6.212   3.734
   67POPC   C1P 3463   2.813   6.178   3.596
   67POPC   C1Q 3464   2.715   6.103   3.506
   67POPC   C1R 3465   2.779   6.068   3.372
   67POPC    CE 3466   2.315   5.959   5.313
   67POPC    OG 3467   2.270   5.844   5.239
   67POPC   C2A 3468   2.331   5.826   5.121
   67POPC    OH 3469   2.434   5.887   5.092
   67POPC   C2B 3470   2.266   5.724   5.036
   67POPC   C2C 3471   2.292   5.757   4.889
   67POPC   C2D 3472   2.185   5.695   4.801
   67POPC   C2E 3473   2.204   5.741   4.657
   67POPC   C2F 3474   2.080   5.704   4.576
   67POPC   C2G 3475   2.104   5.736   4.429
   67POPC   C2H 3476   1.998   5.672   4.339
   67POPC   C2I 3477   2.038   5.704   4.196
   67POPC   C2J 3478   1.958   5.631   4.089
   67POPC   C2K 3479   1.954   5.724   3.968
   67POPC   C2L 3480   1.903   5.661   3.839
   67POPC   C2M 3481   1.834   5.759   3.745
   67POPC   C2N 3482   1.778   5.677   3.629
   67POPC   C2O 3483   1.690   5.754   3.530
   67POPC   C2P 3484   1.647   5.659   3.418
   68POPC   CN1 3485   1.093   2.088   5.786
   68POPC   CN2 3486   1.209   2.209   5.631
   68POPC   CN3 3487   1.220   2.256   5.880
   68POPC   NTM 3488   1.141   2.222   5.762
   68POPC    CA 3489   1.029   2.318   5.749
   68POPC    CB 3490   1.061   2.469   5.742
   68POPC    OA 3491   1.174   2.497   5.661
   68POPC     P 3492   1.195   2.647   5.613
   68POPC    OB 3493   1.342   2.650   5.623
   68POPC    OC 3494   1.117   2.723   5.713
   68POPC    OD 3495   1.135   2.656   5.469
   68POPC    CC 3496   1.016   2.593   5.417
   68POPC    CD 3497   1.035   2.457   5.348
   68POPC    OE 3498   1.113   2.468   5.227
   68POPC   C1A 3499   1.170   2.358   5.180
   68POPC    OF 3500   1.182   2.261   5.255
   68POPC   C1B 3501   1.235   2.385   5.049
   68POPC   C1C 3502   1.233   2.265   4.956
   68POPC   C1D 3503   1.121   2.256   4.852
   68POPC   C1E 3504   1.161   2.140   4.762
   68POPC   C1F 3505   1.080   2.121   4.635
   68POPC   C1G 3506   1.146   2.012   4.550
   68POPC   C1H 3507   1.076   2.001   4.416
   68POPC   C1I 3508   1.136   1.895   4.324
   68POPC   C1J 3509   1.122   1.913   4.193
   68POPC   C1K 3510   1.046   2.036   4.144
   68POPC   C1L 3511   1.007   2.033   3.996
   68POPC   C1M 3512   0.907   1.921   3.965
   68POPC   C1N 3513   0.842   1.929   3.826
   68POPC   C1O 3514   0.940   1.901   3.712
   68POPC   C1P 3515   0.867   1.870   3.581
   68POPC   C1Q 3516   0.781   1.986   3.530
   68POPC   C1R 3517   0.708   1.946   3.402
   68POPC    CE 3518   0.897   2.392   5.325
   68POPC    OG 3519   0.807   2.462   5.238
   68POPC   C2A 3520   0.801   2.410   5.115
   68POPC    OH 3521   0.824   2.291   5.097
   68POPC   C2B 3522   0.740   2.502   5.016
   68POPC   C2C 3523   0.781   2.474   4.870
   68POPC   C2D 3524   0.742   2.597   4.787
   68POPC   C2E 3525   0.746   2.586   4.634
   68POPC   C2F 3526   0.691   2.719   4.578
   68POPC   C2G 3527   0.686   2.730   4.425
   68POPC   C2H 3528   0.622   2.860   4.373
   68POPC   C2I 3529   0.625   2.856   4.219
   68POPC   C2J 3530   0.566   2.971   4.136
   68POPC   C2K 3531   0.592   2.939   3.988
   68POPC   C2L 3532   0.549   3.043   3.884
   68POPC   C2M 3533   0.597   2.998   3.745
   68POPC   C2N 3534   0.580   3.105   3.637
   68POPC   C2O 3535   0.641   3.056   3.505
   68POPC   C2P 3536   0.627   3.154   3.389
   69POPC   CN1 3537   4.603   4.953   5.737
   69POPC   CN2 3538   4.427   4.876   5.606
   69POPC   CN3 3539   4.402   4.882   5.846
   69POPC   NTM 3540   4.494   4.857   5.735
   69POPC    CA 3541   4.551   4.721   5.743
   69POPC    CB 3542   4.457   4.602   5.768
   69POPC    OA 3543   4.355   4.600   5.670
   69POPC     P 3544   4.319   4.457   5.612
   69POPC    OB 3545   4.187   4.436   5.669
   69POPC    OC 3546   4.429   4.379   5.664
   69POPC    OD 3547   4.327   4.489   5.461
   69POPC    CC 3548   4.448   4.531   5.398
   69POPC    CD 3549   4.431   4.655   5.310
   69POPC    OE 3550   4.331   4.645   5.207
   69POPC   C1A 3551   4.251   4.750   5.193
   69POPC    OF 3552   4.244   4.826   5.290
   69POPC   C1B 3553   4.165   4.748   5.072
   69POPC   C1C 3554   4.081   4.875   5.050
   69POPC   C1D 3555   4.109   4.932   4.911
   69POPC   C1E 3556   4.040   5.065   4.878
   69POPC   C1F 3557   4.113   5.133   4.761
   69POPC   C1G 3558   4.036   5.229   4.670
   69POPC   C1H 3559   4.120   5.266   4.547
   69POPC   C1I 3560   4.042   5.347   4.442
   69POPC   C1J 3561   4.064   5.347   4.310
   69POPC   C1K 3562   4.173   5.264   4.240
   69POPC   C1L 3563   4.145   5.236   4.092
   69POPC   C1M 3564   4.211   5.342   4.003
   69POPC   C1N 3565   4.205   5.317   3.852
   69POPC   C1O 3566   4.083   5.382   3.785
   69POPC   C1P 3567   4.098   5.397   3.633
   69POPC   C1Q 3568   4.130   5.267   3.560
   69POPC   C1R 3569   4.121   5.286   3.408
   69POPC    CE 3570   4.571   4.691   5.258
   69POPC    OG 3571   4.620   4.602   5.157
   69POPC   C2A 3572   4.588   4.641   5.034
   69POPC    OH 3573   4.571   4.761   5.013
   69POPC   C2B 3574   4.608   4.540   4.928
   69POPC   C2C 3575   4.601   4.595   4.785
   69POPC   C2D 3576   4.603   4.475   4.692
   69POPC   C2E 3577   4.610   4.497   4.541
   69POPC   C2F 3578   4.574   4.364   4.471
   69POPC   C2G 3579   4.587   4.374   4.319
   69POPC   C2H 3580   4.529   4.261   4.234
   69POPC   C2I 3581   4.498   4.319   4.096
   69POPC   C2J 3582   4.456   4.219   3.989
   69POPC   C2K 3583   4.385   4.290   3.873
   69POPC   C2L 3584   4.365   4.191   3.759
   69POPC   C2M 3585   4.278   4.246   3.645
   69POPC   C2N 3586   4.284   4.147   3.529
   69POPC   C2O 3587   4.207   4.198   3.407
   69POPC   C2P 3588   4.225   4.102   3.289
   70POPC   CN1 3589   2.753   3.745   5.869
   70POPC   CN2 3590   2.660   3.886   5.711
   70POPC   CN3 3591   2.609   3.916   5.949
   70POPC   NTM 3592   2.634   3.822   5.841
   70POPC    CA 3593   2.516   3.733   5.829
   70POPC    CB 3594   2.378   3.789   5.789
   70POPC    OA 3595   2.377   3.845   5.659
   70POPC     P 3596   2.229   3.856   5.605
   70POPC    OB 3597   2.182   3.984   5.660
   70POPC    OC 3598   2.165   3.733   5.655
   70POPC    OD 3599   2.266   3.855   5.453
   70POPC    CC 3600   2.342   3.745   5.403
   70POPC    CD 3601   2.438   3.781   5.290
   70POPC    OE 3602   2.374   3.831   5.170
   70POPC   C1A 3603   2.435   3.933   5.111
   70POPC    OF 3604   2.542   3.973   5.153
   70POPC   C1B 3605   2.362   3.990   4.997
   70POPC   C1C 3606   2.428   4.117   4.941
   70POPC   C1D 3607   2.524   4.086   4.827
   70POPC   C1E 3608   2.577   4.212   4.757
   70POPC   C1F 3609   2.714   4.180   4.700
   70POPC   C1G 3610   2.730   4.204   4.550
   70POPC   C1H 3611   2.858   4.134   4.502
   70POPC   C1I 3612   2.921   4.213   4.389
   70POPC   C1J 3613   2.901   4.192   4.259
   70POPC   C1K 3614   2.820   4.080   4.195
   70POPC   C1L 3615   2.846   4.074   4.044
   70POPC   C1M 3616   2.994   4.059   4.007
   70POPC   C1N 3617   3.019   4.013   3.864
   70POPC   C1O 3618   2.964   4.102   3.753
   70POPC   C1P 3619   3.035   4.058   3.625
   70POPC   C1Q 3620   2.943   4.050   3.504
   70POPC   C1R 3621   3.022   4.009   3.379
   70POPC    CE 3622   2.538   3.665   5.272
   70POPC    OG 3623   2.496   3.552   5.194
   70POPC   C2A 3624   2.545   3.551   5.070
   70POPC    OH 3625   2.638   3.623   5.036
   70POPC   C2B 3626   2.484   3.450   4.981
   70POPC   C2C 3627   2.492   3.501   4.837
   70POPC   C2D 3628   2.407   3.424   4.737
   70POPC   C2E 3629   2.405   3.504   4.607
   70POPC   C2F 3630   2.277   3.478   4.528
   70POPC   C2G 3631   2.269   3.557   4.396
   70POPC   C2H 3632   2.160   3.495   4.307
   70POPC   C2I 3633   2.173   3.531   4.159
   70POPC   C2J 3634   2.122   3.420   4.067
   70POPC   C2K 3635   2.091   3.478   3.929
   70POPC   C2L 3636   2.056   3.378   3.818
   70POPC   C2M 3637   2.003   3.459   3.700
   70POPC   C2N 3638   1.989   3.380   3.570
   70POPC   C2O 3639   1.954   3.472   3.453
   70POPC   C2P 3640   1.954   3.402   3.318
   71POPC   CN1 3641   0.644   2.869   5.781
   71POPC   CN2 3642   0.764   3.010   5.640
   71POPC   CN3 3643   0.820   3.004   5.873
   71POPC   NTM 3644   0.710   3.000   5.777
   71POPC    CA 3645   0.609   3.104   5.809
   71POPC    CB 3646   0.651   3.252   5.811
   71POPC    OA 3647   0.693   3.289   5.682
   71POPC     P 3648   0.773   3.424   5.671
   71POPC    OB 3649   0.898   3.378   5.734
   71POPC    OC 3650   0.682   3.507   5.752
   71POPC    OD 3651   0.772   3.445   5.517
   71POPC    CC 3652   0.666   3.396   5.434
   71POPC    CD 3653   0.688   3.259   5.368
   71POPC    OE 3654   0.804   3.254   5.283
   71POPC   C1A 3655   0.859   3.136   5.258
   71POPC    OF 3656   0.841   3.045   5.340
   71POPC   C1B 3657   0.971   3.152   5.163
   71POPC   C1C 3658   1.009   3.027   5.084
   71POPC   C1D 3659   0.930   3.011   4.954
   71POPC   C1E 3660   1.007   2.911   4.868
   71POPC   C1F 3661   0.963   2.912   4.721
   71POPC   C1G 3662   1.040   2.807   4.641
   71POPC   C1H 3663   1.020   2.821   4.490
   71POPC   C1I 3664   1.051   2.692   4.413
   71POPC   C1J 3665   1.031   2.683   4.282
   71POPC   C1K 3666   0.972   2.801   4.204
   71POPC   C1L 3667   0.956   2.788   4.052
   71POPC   C1M 3668   0.903   2.653   4.003
   71POPC   C1N 3669   0.857   2.646   3.856
   71POPC   C1O 3670   0.890   2.759   3.757
   71POPC   C1P 3671   0.859   2.707   3.616
   71POPC   C1Q 3672   0.885   2.804   3.501
   71POPC   C1R 3673   0.856   2.738   3.366
   71POPC    CE 3674   0.556   3.205   5.309
   71POPC    OG 3675   0.472   3.282   5.220
   71POPC   C2A 3676   0.500   3.267   5.090
   71POPC    OH 3677   0.576   3.178   5.052
   71POPC   C2B 3678   0.410   3.346   5.001
   71POPC   C2C 3679   0.425   3.307   4.853
   71POPC   C2D 3680   0.386   3.422   4.759
   71POPC   C2E 3681   0.443   3.402   4.618
   71POPC   C2F 3682   0.419   3.526   4.531
   71POPC   C2G 3683   0.489   3.516   4.395
   71POPC   C2H 3684   0.447   3.634   4.307
   71POPC   C2I 3685   0.522   3.636   4.173
   71POPC   C2J 3686   0.478   3.751   4.081
   71POPC   C2K 3687   0.569   3.752   3.958
   71POPC   C2L 3688   0.551   3.863   3.854
   71POPC   C2M 3689   0.657   3.843   3.744
   71POPC   C2N 3690   0.656   3.955   3.640
   71POPC   C2O 3691   0.760   3.928   3.530
   71POPC   C2P 3692   0.760   4.040   3.426
   72POPC   CN1 3693   3.962   2.145   5.648
   72POPC   CN2 3694   3.786   2.061   5.531
   72POPC   CN3 3695   3.756   2.084   5.768
   72POPC   NTM 3696   3.853   2.051   5.662
   72POPC    CA 3697   3.918   1.920   5.686
   72POPC    CB 3698   3.829   1.800   5.722
   72POPC    OA 3699   3.724   1.806   5.627
   72POPC     P 3700   3.615   1.697   5.618
   72POPC    OB 3701   3.505   1.781   5.668
   72POPC    OC 3702   3.675   1.600   5.709
   72POPC    OD 3703   3.629   1.676   5.463
   72POPC    CC 3704   3.755   1.655   5.398
   72POPC    CD 3705   3.800   1.770   5.305
   72POPC    OE 3706   3.705   1.798   5.199
   72POPC   C1A 3707   3.674   1.924   5.173
   72POPC    OF 3708   3.720   2.016   5.244
   72POPC   C1B 3709   3.560   1.933   5.080
   72POPC   C1C 3710   3.572   2.036   4.967
   72POPC   C1D 3711   3.665   1.996   4.853
   72POPC   C1E 3712   3.636   2.093   4.738
   72POPC   C1F 3713   3.715   2.069   4.609
   72POPC   C1G 3714   3.657   2.165   4.505
   72POPC   C1H 3715   3.714   2.144   4.364
   72POPC   C1I 3716   3.642   2.238   4.267
   72POPC   C1J 3717   3.635   2.210   4.137
   72POPC   C1K 3718   3.700   2.081   4.086
   72POPC   C1L 3719   3.713   2.074   3.933
   72POPC   C1M 3720   3.834   2.151   3.880
   72POPC   C1N 3721   3.862   2.129   3.731
   72POPC   C1O 3722   3.744   2.169   3.641
   72POPC   C1P 3723   3.785   2.179   3.494
   72POPC   C1Q 3724   3.839   2.048   3.436
   72POPC   C1R 3725   3.892   2.070   3.295
   72POPC    CE 3726   3.945   1.745   5.262
   72POPC    OG 3727   3.972   1.639   5.170
   72POPC   C2A 3728   3.977   1.674   5.041
   72POPC    OH 3729   3.976   1.793   5.007
   72POPC   C2B 3730   3.997   1.559   4.951
   72POPC   C2C 3731   3.946   1.592   4.810
   72POPC   C2D 3732   3.951   1.469   4.720
   72POPC   C2E 3733   3.914   1.507   4.577
   72POPC   C2F 3734   3.893   1.381   4.493
   72POPC   C2G 3735   3.867   1.414   4.346
   72POPC   C2H 3736   3.813   1.290   4.276
   72POPC   C2I 3737   3.778   1.320   4.130
   72POPC   C2J 3738   3.697   1.206   4.068
   72POPC   C2K 3739   3.661   1.240   3.924
   72POPC   C2L 3740   3.608   1.118   3.848
   72POPC   C2M 3741   3.559   1.160   3.709
   72POPC   C2N 3742   3.523   1.039   3.624
   72POPC   C2O 3743   3.456   1.085   3.494
   72POPC   C2P 3744   3.430   0.967   3.400
   73POPC   CN1 3745   0.909   3.704   5.861
   73POPC   CN2 3746   1.005   3.775   5.656
   73POPC   CN3 3747   1.128   3.796   5.860
   73POPC   NTM 3748   0.994   3.805   5.800
   73POPC    CA 3749   0.924   3.934   5.826
   73POPC    CB 3750   0.988   4.070   5.795
   73POPC    OA 3751   1.007   4.095   5.658
   73POPC     P 3752   1.152   4.142   5.623
   73POPC    OB 3753   1.227   4.019   5.647
   73POPC    OC 3754   1.172   4.247   5.725
   73POPC    OD 3755   1.143   4.203   5.480
   73POPC    CC 3756   1.026   4.180   5.399
   73POPC    CD 3757   1.003   4.038   5.343
   73POPC    OE 3758   1.086   4.012   5.229
   73POPC   C1A 3759   1.110   3.887   5.196
   73POPC    OF 3760   1.080   3.794   5.272
   73POPC   C1B 3761   1.196   3.886   5.076
   73POPC   C1C 3762   1.153   3.794   4.963
   73POPC   C1D 3763   1.034   3.837   4.878
   73POPC   C1E 3764   1.029   3.730   4.770
   73POPC   C1F 3765   0.918   3.734   4.666
   73POPC   C1G 3766   0.954   3.617   4.576
   73POPC   C1H 3767   0.878   3.605   4.445
   73POPC   C1I 3768   0.956   3.501   4.365
   73POPC   C1J 3769   0.978   3.511   4.235
   73POPC   C1K 3770   0.918   3.626   4.154
   73POPC   C1L 3771   0.895   3.591   4.007
   73POPC   C1M 3772   0.798   3.473   3.989
   73POPC   C1N 3773   0.731   3.461   3.851
   73POPC   C1O 3774   0.824   3.488   3.733
   73POPC   C1P 3775   0.749   3.464   3.602
   73POPC   C1Q 3776   0.831   3.516   3.484
   73POPC   C1R 3777   0.759   3.490   3.351
   73POPC    CE 3778   0.854   4.025   5.311
   73POPC    OG 3779   0.801   4.119   5.216
   73POPC   C2A 3780   0.788   4.073   5.092
   73POPC    OH 3781   0.758   3.956   5.069
   73POPC   C2B 3782   0.766   4.183   4.997
   73POPC   C2C 3783   0.807   4.151   4.854
   73POPC   C2D 3784   0.754   4.261   4.762
   73POPC   C2E 3785   0.806   4.241   4.621
   73POPC   C2F 3786   0.732   4.331   4.521
   73POPC   C2G 3787   0.801   4.312   4.386
   73POPC   C2H 3788   0.726   4.369   4.265
   73POPC   C2I 3789   0.822   4.352   4.148
   73POPC   C2J 3790   0.772   4.394   4.009
   73POPC   C2K 3791   0.892   4.386   3.915
   73POPC   C2L 3792   0.859   4.433   3.773
   73POPC   C2M 3793   0.982   4.450   3.684
   73POPC   C2N 3794   0.932   4.503   3.550
   73POPC   C2O 3795   1.030   4.484   3.434
   73POPC   C2P 3796   0.981   4.561   3.311
   74POPC   CN1 3797   6.214   5.315   5.750
   74POPC   CN2 3798   6.056   5.419   5.599
   74POPC   CN3 3799   6.026   5.434   5.836
   74POPC   NTM 3800   6.074   5.347   5.727
   74POPC    CA 3801   6.012   5.214   5.720
   74POPC    CB 3802   5.865   5.201   5.762
   74POPC    OA 3803   5.790   5.308   5.706
   74POPC     P 3804   5.660   5.264   5.627
   74POPC    OB 3805   5.569   5.370   5.674
   74POPC    OC 3806   5.644   5.128   5.674
   74POPC    OD 3807   5.724   5.279   5.486
   74POPC    CC 3808   5.798   5.180   5.412
   74POPC    CD 3809   5.896   5.247   5.314
   74POPC    OE 3810   5.830   5.338   5.224
   74POPC   C1A 3811   5.883   5.458   5.209
   74POPC    OF 3812   5.960   5.501   5.296
   74POPC   C1B 3813   5.813   5.533   5.103
   74POPC   C1C 3814   5.910   5.611   5.014
   74POPC   C1D 3815   5.944   5.543   4.882
   74POPC   C1E 3816   5.988   5.654   4.786
   74POPC   C1F 3817   6.031   5.604   4.649
   74POPC   C1G 3818   6.061   5.724   4.559
   74POPC   C1H 3819   6.112   5.681   4.422
   74POPC   C1I 3820   6.140   5.804   4.336
   74POPC   C1J 3821   6.096   5.809   4.210
   74POPC   C1K 3822   6.021   5.690   4.151
   74POPC   C1L 3823   6.028   5.682   3.998
   74POPC   C1M 3824   6.172   5.668   3.945
   74POPC   C1N 3825   6.181   5.622   3.799
   74POPC   C1O 3826   6.104   5.713   3.703
   74POPC   C1P 3827   6.158   5.707   3.560
   74POPC   C1Q 3828   6.095   5.597   3.475
   74POPC   C1R 3829   6.147   5.605   3.332
   74POPC    CE 3830   5.993   5.148   5.247
   74POPC    OG 3831   5.941   5.047   5.159
   74POPC   C2A 3832   5.955   5.071   5.028
   74POPC    OH 3833   6.023   5.166   4.989
   74POPC   C2B 3834   5.890   4.967   4.944
   74POPC   C2C 3835   5.911   4.980   4.793
   74POPC   C2D 3836   5.804   4.900   4.716
   74POPC   C2E 3837   5.813   4.924   4.565
   74POPC   C2F 3838   5.689   4.881   4.485
   74POPC   C2G 3839   5.702   4.931   4.340
   74POPC   C2H 3840   5.579   4.914   4.249
   74POPC   C2I 3841   5.599   4.982   4.112
   74POPC   C2J 3842   5.481   4.966   4.016
   74POPC   C2K 3843   5.509   5.007   3.871
   74POPC   C2L 3844   5.395   4.955   3.782
   74POPC   C2M 3845   5.401   4.985   3.631
   74POPC   C2N 3846   5.266   4.947   3.567
   74POPC   C2O 3847   5.254   4.984   3.418
   74POPC   C2P 3848   5.121   4.935   3.361
   75POPC   CN1 3849   0.187   3.524   5.661
   75POPC   CN2 3850   0.400   3.571   5.578
   75POPC   CN3 3851   0.370   3.542   5.813
   75POPC   NTM 3852   0.310   3.597   5.691
   75POPC    CA 3853   0.280   3.741   5.711
   75POPC    CB 3854   0.394   3.844   5.724
   75POPC    OA 3855   0.456   3.860   5.599
   75POPC     P 3856   0.582   3.956   5.595
   75POPC    OB 3857   0.687   3.860   5.630
   75POPC    OC 3858   0.542   4.056   5.696
   75POPC    OD 3859   0.571   4.005   5.446
   75POPC    CC 3860   0.504   3.933   5.341
   75POPC    CD 3861   0.530   3.786   5.299
   75POPC    OE 3862   0.663   3.758   5.248
   75POPC   C1A 3863   0.691   3.644   5.185
   75POPC    OF 3864   0.612   3.550   5.195
   75POPC   C1B 3865   0.827   3.640   5.126
   75POPC   C1C 3866   0.868   3.509   5.058
   75POPC   C1D 3867   0.782   3.475   4.936
   75POPC   C1E 3868   0.849   3.363   4.858
   75POPC   C1F 3869   0.769   3.321   4.736
   75POPC   C1G 3870   0.866   3.246   4.646
   75POPC   C1H 3871   0.819   3.201   4.508
   75POPC   C1I 3872   0.951   3.155   4.448
   75POPC   C1J 3873   0.988   3.141   4.322
   75POPC   C1K 3874   0.899   3.165   4.201
   75POPC   C1L 3875   0.987   3.176   4.077
   75POPC   C1M 3876   0.902   3.129   3.959
   75POPC   C1N 3877   0.953   3.162   3.819
   75POPC   C1O 3878   1.087   3.102   3.780
   75POPC   C1P 3879   1.090   3.078   3.629
   75POPC   C1Q 3880   1.063   3.202   3.544
   75POPC   C1R 3881   1.046   3.164   3.396
   75POPC    CE 3882   0.407   3.751   5.213
   75POPC    OG 3883   0.380   3.835   5.101
   75POPC   C2A 3884   0.417   3.784   4.983
   75POPC    OH 3885   0.414   3.662   4.968
   75POPC   C2B 3886   0.409   3.882   4.874
   75POPC   C2C 3887   0.510   3.852   4.764
   75POPC   C2D 3888   0.486   3.942   4.643
   75POPC   C2E 3889   0.592   3.911   4.538
   75POPC   C2F 3890   0.575   3.987   4.406
   75POPC   C2G 3891   0.699   3.955   4.323
   75POPC   C2H 3892   0.700   4.015   4.183
   75POPC   C2I 3893   0.837   3.988   4.121
   75POPC   C2J 3894   0.848   4.036   3.976
   75POPC   C2K 3895   0.989   4.025   3.919
   75POPC   C2L 3896   0.990   4.074   3.774
   75POPC   C2M 3897   1.129   4.083   3.712
   75POPC   C2N 3898   1.117   4.130   3.566
   75POPC   C2O 3899   1.253   4.138   3.498
   75POPC   C2P 3900   1.241   4.195   3.357
   76POPC   CN1 3901   1.177   4.752   5.701
   76POPC   CN2 3902   1.267   4.562   5.593
   76POPC   CN3 3903   1.179   4.546   5.815
   76POPC   NTM 3904   1.255   4.630   5.724
   76POPC    CA 3905   1.383   4.665   5.791
   76POPC    CB 3906   1.514   4.590   5.762
   76POPC    OA 3907   1.568   4.631   5.638
   76POPC     P 3908   1.697   4.548   5.596
   76POPC    OB 3909   1.645   4.414   5.618
   76POPC    OC 3910   1.783   4.600   5.704
   76POPC    OD 3911   1.711   4.590   5.445
   76POPC    CC 3912   1.655   4.707   5.385
   76POPC    CD 3913   1.513   4.695   5.324
   76POPC    OE 3914   1.513   4.614   5.205
   76POPC   C1A 3915   1.407   4.541   5.179
   76POPC    OF 3916   1.306   4.548   5.251
   76POPC   C1B 3917   1.436   4.446   5.069
   76POPC   C1C 3918   1.317   4.415   4.979
   76POPC   C1D 3919   1.276   4.537   4.897
   76POPC   C1E 3920   1.169   4.495   4.797
   76POPC   C1F 3921   1.149   4.607   4.697
   76POPC   C1G 3922   1.058   4.557   4.586
   76POPC   C1H 3923   1.070   4.646   4.464
   76POPC   C1I 3924   0.939   4.638   4.388
   76POPC   C1J 3925   0.924   4.650   4.257
   76POPC   C1K 3926   1.029   4.670   4.148
   76POPC   C1L 3927   0.966   4.698   4.010
   76POPC   C1M 3928   0.826   4.765   4.003
   76POPC   C1N 3929   0.791   4.850   3.879
   76POPC   C1O 3930   0.805   4.780   3.743
   76POPC   C1P 3931   0.768   4.861   3.617
   76POPC   C1Q 3932   0.884   4.941   3.556
   76POPC   C1R 3933   0.872   4.954   3.404
   76POPC    CE 3934   1.443   4.833   5.314
   76POPC    OG 3935   1.491   4.943   5.234
   76POPC   C2A 3936   1.445   4.947   5.108
   76POPC    OH 3937   1.337   4.893   5.082
   76POPC   C2B 3938   1.509   5.050   5.021
   76POPC   C2C 3939   1.502   5.020   4.871
   76POPC   C2D 3940   1.630   5.058   4.794
   76POPC   C2E 3941   1.618   5.033   4.643
   76POPC   C2F 3942   1.748   5.016   4.562
   76POPC   C2G 3943   1.708   5.000   4.414
   76POPC   C2H 3944   1.816   4.962   4.312
   76POPC   C2I 3945   1.776   4.991   4.166
   76POPC   C2J 3946   1.862   4.911   4.065
   76POPC   C2K 3947   1.850   4.952   3.917
   76POPC   C2L 3948   1.970   4.910   3.830
   76POPC   C2M 3949   1.950   4.932   3.680
   76POPC   C2N 3950   2.083   4.929   3.603
   76POPC   C2O 3951   2.059   4.941   3.453
   76POPC   C2P 3952   2.189   4.965   3.376
   77POPC   CN1 3953   0.205   4.692   5.678
   77POPC   CN2 3954   0.361   4.564   5.555
   77POPC   CN3 3955   0.325   4.510   5.782
   77POPC   NTM 3956   0.334   4.623   5.689
   77POPC    CA 3957   0.436   4.720   5.735
   77POPC    CB 3958   0.584   4.678   5.748
   77POPC    OA 3959   0.634   4.656   5.618
   77POPC     P 3960   0.767   4.570   5.614
   77POPC    OB 3961   0.709   4.449   5.674
   77POPC    OC 3962   0.852   4.657   5.697
   77POPC    OD 3963   0.792   4.573   5.459
   77POPC    CC 3964   0.757   4.685   5.376
   77POPC    CD 3965   0.618   4.674   5.310
   77POPC    OE 3966   0.615   4.580   5.201
   77POPC   C1A 3967   0.503   4.521   5.165
   77POPC    OF 3968   0.401   4.532   5.236
   77POPC   C1B 3969   0.529   4.427   5.054
   77POPC   C1C 3970   0.415   4.385   4.963
   77POPC   C1D 3971   0.394   4.482   4.846
   77POPC   C1E 3972   0.311   4.410   4.739
   77POPC   C1F 3973   0.284   4.500   4.619
   77POPC   C1G 3974   0.205   4.421   4.514
   77POPC   C1H 3975   0.177   4.504   4.389
   77POPC   C1I 3976   0.098   4.420   4.288
   77POPC   C1J 3977   0.137   4.410   4.161
   77POPC   C1K 3978   0.260   4.486   4.110
   77POPC   C1L 3979   0.261   4.503   3.957
   77POPC   C1M 3980   0.142   4.586   3.906
   77POPC   C1N 3981   0.151   4.621   3.757
   77POPC   C1O 3982   0.149   4.500   3.663
   77POPC   C1P 3983   0.131   4.541   3.516
   77POPC   C1Q 3984   0.250   4.618   3.459
   77POPC   C1R 3985   0.221   4.667   3.317
   77POPC    CE 3986   0.567   4.815   5.273
   77POPC    OG 3987   0.637   4.877   5.165
   77POPC   C2A 3988   0.601   4.835   5.043
   77POPC    OH 3989   0.482   4.810   5.021
   77POPC   C2B 3990   0.709   4.852   4.943
   77POPC   C2C 3991   0.665   4.856   4.797
   77POPC   C2D 3992   0.790   4.880   4.711
   77POPC   C2E 3993   0.763   4.917   4.565
   77POPC   C2F 3994   0.894   4.967   4.504
   77POPC   C2G 3995   0.888   5.001   4.354
   77POPC   C2H 3996   1.028   5.019   4.294
   77POPC   C2I 3997   1.020   5.051   4.144
   77POPC   C2J 3998   1.131   4.989   4.057
   77POPC   C2K 3999   1.090   5.002   3.909
   77POPC   C2L 4000   1.170   4.945   3.790
   77POPC   C2M 4001   1.184   4.803   3.735
   77POPC   C2N 4002   1.218   4.823   3.586
   77POPC   C2O 4003   1.279   4.705   3.512
   77POPC   C2P 4004   1.288   4.732   3.361
   78POPC   CN1 4005   4.067   4.751   5.704
   78POPC   CN2 4006   3.872   4.707   5.588
   78POPC   CN3 4007   3.855   4.780   5.814
   78POPC   NTM 4008   3.933   4.697   5.722
   78POPC    CA 4009   3.952   4.561   5.777
   78POPC    CB 4010   3.844   4.452   5.768
   78POPC    OA 4011   3.815   4.423   5.633
   78POPC     P 4012   3.689   4.332   5.617
   78POPC    OB 4013   3.591   4.419   5.686
   78POPC    OC 4014   3.740   4.211   5.685
   78POPC    OD 4015   3.680   4.329   5.460
   78POPC    CC 4016   3.798   4.327   5.379
   78POPC    CD 4017   3.835   4.464   5.317
   78POPC    OE 4018   3.736   4.511   5.223
   78POPC   C1A 4019   3.730   4.640   5.190
   78POPC    OF 4020   3.786   4.722   5.264
   78POPC   C1B 4021   3.622   4.662   5.092
   78POPC   C1C 4022   3.647   4.762   4.979
   78POPC   C1D 4023   3.752   4.719   4.875
   78POPC   C1E 4024   3.722   4.791   4.744
   78POPC   C1F 4025   3.836   4.795   4.641
   78POPC   C1G 4026   3.838   4.934   4.575
   78POPC   C1H 4027   3.802   4.937   4.426
   78POPC   C1I 4028   3.802   5.080   4.372
   78POPC   C1J 4029   3.771   5.106   4.245
   78POPC   C1K 4030   3.741   4.990   4.149
   78POPC   C1L 4031   3.727   5.024   4.000
   78POPC   C1M 4032   3.842   5.108   3.942
   78POPC   C1N 4033   3.879   5.082   3.795
   78POPC   C1O 4034   3.763   5.094   3.695
   78POPC   C1P 4035   3.806   5.100   3.547
   78POPC   C1Q 4036   3.890   4.982   3.497
   78POPC   C1R 4037   3.903   4.985   3.345
   78POPC    CE 4038   3.978   4.452   5.260
   78POPC    OG 4039   3.989   4.354   5.156
   78POPC   C2A 4040   3.950   4.395   5.035
   78POPC    OH 4041   3.964   4.513   5.004
   78POPC   C2B 4042   3.928   4.283   4.941
   78POPC   C2C 4043   3.914   4.333   4.798
   78POPC   C2D 4044   3.934   4.221   4.697
   78POPC   C2E 4045   3.923   4.280   4.557
   78POPC   C2F 4046   3.920   4.168   4.454
   78POPC   C2G 4047   3.891   4.226   4.316
   78POPC   C2H 4048   3.855   4.112   4.221
   78POPC   C2I 4049   3.795   4.171   4.094
   78POPC   C2J 4050   3.738   4.060   4.006
   78POPC   C2K 4051   3.672   4.118   3.882
   78POPC   C2L 4052   3.631   4.006   3.787
   78POPC   C2M 4053   3.551   4.060   3.670
   78POPC   C2N 4054   3.523   3.949   3.569
   78POPC   C2O 4055   3.431   4.001   3.458
   78POPC   C2P 4056   3.411   3.896   3.349
   79POPC   CN1 4057   5.091   6.226   5.757
   79POPC   CN2 4058   4.926   6.218   5.588
   79POPC   CN3 4059   4.875   6.326   5.793
   79POPC   NTM 4060   4.946   6.212   5.734
   79POPC    CA 4061   4.902   6.083   5.793
   79POPC    CB 4062   4.757   6.032   5.777
   79POPC    OA 4063   4.725   5.997   5.643
   79POPC     P 4064   4.569   6.007   5.620
   79POPC    OB 4065   4.548   6.147   5.657
   79POPC    OC 4066   4.524   5.898   5.709
   79POPC    OD 4067   4.550   5.971   5.467
   79POPC    CC 4068   4.654   5.907   5.392
   79POPC    CD 4069   4.757   5.999   5.322
   79POPC    OE 4070   4.709   6.069   5.206
   79POPC   C1A 4071   4.783   6.169   5.159
   79POPC    OF 4072   4.875   6.215   5.228
   79POPC   C1B 4073   4.729   6.223   5.032
   79POPC   C1C 4074   4.833   6.287   4.941
   79POPC   C1D 4075   4.924   6.190   4.866
   79POPC   C1E 4076   4.992   6.270   4.755
   79POPC   C1F 4077   5.080   6.190   4.659
   79POPC   C1G 4078   5.123   6.285   4.548
   79POPC   C1H 4079   5.214   6.226   4.440
   79POPC   C1I 4080   5.253   6.339   4.345
   79POPC   C1J 4081   5.224   6.339   4.215
   79POPC   C1K 4082   5.156   6.220   4.146
   79POPC   C1L 4083   5.177   6.218   3.994
   79POPC   C1M 4084   5.325   6.217   3.954
   79POPC   C1N 4085   5.369   6.161   3.818
   79POPC   C1O 4086   5.307   6.227   3.694
   79POPC   C1P 4087   5.355   6.166   3.561
   79POPC   C1Q 4088   5.365   6.013   3.553
   79POPC   C1R 4089   5.396   5.965   3.411
   79POPC    CE 4090   4.880   5.914   5.293
   79POPC    OG 4091   4.857   5.789   5.226
   79POPC   C2A 4092   4.905   5.782   5.102
   79POPC    OH 4093   4.985   5.863   5.057
   79POPC   C2B 4094   4.863   5.657   5.035
   79POPC   C2C 4095   4.818   5.690   4.893
   79POPC   C2D 4096   4.776   5.563   4.818
   79POPC   C2E 4097   4.742   5.602   4.675
   79POPC   C2F 4098   4.698   5.482   4.591
   79POPC   C2G 4099   4.686   5.526   4.446
   79POPC   C2H 4100   4.628   5.419   4.354
   79POPC   C2I 4101   4.631   5.469   4.209
   79POPC   C2J 4102   4.602   5.355   4.112
   79POPC   C2K 4103   4.620   5.403   3.968
   79POPC   C2L 4104   4.589   5.293   3.866
   79POPC   C2M 4105   4.578   5.355   3.727
   79POPC   C2N 4106   4.534   5.258   3.618
   79POPC   C2O 4107   4.507   5.339   3.491
   79POPC   C2P 4108   4.483   5.252   3.368
   80POPC   CN1 4109   1.915   5.818   5.770
   80POPC   CN2 4110   1.755   5.893   5.617
   80POPC   CN3 4111   1.712   5.927   5.846
   80POPC   NTM 4112   1.771   5.832   5.750
   80POPC    CA 4113   1.713   5.696   5.759
   80POPC    CB 4114   1.560   5.677   5.763
   80POPC    OA 4115   1.499   5.755   5.662
   80POPC     P 4116   1.357   5.710   5.611
   80POPC    OB 4117   1.274   5.829   5.634
   80POPC    OC 4118   1.327   5.591   5.690
   80POPC    OD 4119   1.387   5.675   5.461
   80POPC    CC 4120   1.512   5.619   5.417
   80POPC    CD 4121   1.605   5.710   5.335
   80POPC    OE 4122   1.540   5.765   5.218
   80POPC   C1A 4123   1.573   5.888   5.181
   80POPC    OF 4124   1.647   5.956   5.252
   80POPC   C1B 4125   1.489   5.933   5.067
   80POPC   C1C 4126   1.556   6.035   4.974
   80POPC   C1D 4127   1.663   5.974   4.884
   80POPC   C1E 4128   1.708   6.081   4.785
   80POPC   C1F 4129   1.807   6.029   4.681
   80POPC   C1G 4130   1.836   6.142   4.582
   80POPC   C1H 4131   1.924   6.097   4.465
   80POPC   C1I 4132   1.946   6.216   4.372
   80POPC   C1J 4133   1.921   6.207   4.241
   80POPC   C1K 4134   1.872   6.077   4.177
   80POPC   C1L 4135   1.899   6.074   4.026
   80POPC   C1M 4136   2.049   6.077   3.993
   80POPC   C1N 4137   2.078   6.059   3.843
   80POPC   C1O 4138   2.020   6.170   3.756
   80POPC   C1P 4139   2.085   6.174   3.617
   80POPC   C1Q 4140   2.003   6.103   3.510
   80POPC   C1R 4141   2.069   6.124   3.373
   80POPC    CE 4142   1.733   5.629   5.305
   80POPC    OG 4143   1.715   5.528   5.206
   80POPC   C2A 4144   1.744   5.569   5.083
   80POPC    OH 4145   1.833   5.653   5.065
   80POPC   C2B 4146   1.674   5.494   4.977
   80POPC   C2C 4147   1.730   5.516   4.836
   80POPC   C2D 4148   1.656   5.422   4.741
   80POPC   C2E 4149   1.699   5.426   4.595
   80POPC   C2F 4150   1.589   5.354   4.516
   80POPC   C2G 4151   1.615   5.335   4.367
   80POPC   C2H 4152   1.492   5.271   4.301
   80POPC   C2I 4153   1.518   5.245   4.152
   80POPC   C2J 4154   1.397   5.191   4.077
   80POPC   C2K 4155   1.325   5.282   3.976
   80POPC   C2L 4156   1.350   5.233   3.832
   80POPC   C2M 4157   1.255   5.281   3.722
   80POPC   C2N 4158   1.286   5.216   3.586
   80POPC   C2O 4159   1.173   5.238   3.485
   80POPC   C2P 4160   1.203   5.174   3.349
   81POPC   CN1 4161   5.500   2.134   5.739
   81POPC   CN2 4162   5.335   2.029   5.606
   81POPC   CN3 4163   5.305   2.032   5.843
   81POPC   NTM 4164   5.405   2.022   5.736
   81POPC    CA 4165   5.485   1.898   5.754
   81POPC    CB 4166   5.420   1.758   5.748
   81POPC    OA 4167   5.364   1.741   5.620
   81POPC     P 4168   5.268   1.617   5.605
   81POPC    OB 4169   5.158   1.684   5.677
   81POPC    OC 4170   5.350   1.512   5.667
   81POPC    OD 4171   5.262   1.618   5.447
   81POPC    CC 4172   5.377   1.650   5.367
   81POPC    CD 4173   5.373   1.794   5.311
   81POPC    OE 4174   5.276   1.811   5.206
   81POPC   C1A 4175   5.210   1.925   5.193
   81POPC    OF 4176   5.228   2.017   5.275
   81POPC   C1B 4177   5.102   1.912   5.093
   81POPC   C1C 4178   5.061   2.039   5.018
   81POPC   C1D 4179   5.161   2.078   4.909
   81POPC   C1E 4180   5.101   2.188   4.821
   81POPC   C1F 4181   5.195   2.223   4.705
   81POPC   C1G 4182   5.134   2.328   4.614
   81POPC   C1H 4183   5.224   2.357   4.494
   81POPC   C1I 4184   5.167   2.470   4.408
   81POPC   C1J 4185   5.143   2.454   4.279
   81POPC   C1K 4186   5.171   2.321   4.207
   81POPC   C1L 4187   5.175   2.332   4.054
   81POPC   C1M 4188   5.275   2.438   4.005
   81POPC   C1N 4189   5.321   2.422   3.859
   81POPC   C1O 4190   5.208   2.419   3.756
   81POPC   C1P 4191   5.258   2.477   3.624
   81POPC   C1Q 4192   5.251   2.377   3.509
   81POPC   C1R 4193   5.294   2.445   3.378
   81POPC    CE 4194   5.517   1.838   5.278
   81POPC    OG 4195   5.580   1.774   5.166
   81POPC   C2A 4196   5.572   1.838   5.050
   81POPC    OH 4197   5.538   1.956   5.044
   81POPC   C2B 4198   5.627   1.758   4.938
   81POPC   C2C 4199   5.552   1.785   4.808
   81POPC   C2D 4200   5.603   1.693   4.697
   81POPC   C2E 4201   5.530   1.720   4.565
   81POPC   C2F 4202   5.573   1.621   4.457
   81POPC   C2G 4203   5.501   1.647   4.326
   81POPC   C2H 4204   5.532   1.541   4.220
   81POPC   C2I 4205   5.448   1.570   4.096
   81POPC   C2J 4206   5.461   1.464   3.986
   81POPC   C2K 4207   5.359   1.500   3.877
   81POPC   C2L 4208   5.366   1.409   3.755
   81POPC   C2M 4209   5.258   1.450   3.654
   81POPC   C2N 4210   5.273   1.372   3.524
   81POPC   C2O 4211   5.164   1.403   3.421
   81POPC   C2P 4212   5.185   1.318   3.295
   82POPC   CN1 4213   0.786   0.651   5.719
   82POPC   CN2 4214   0.912   0.805   5.592
   82POPC   CN3 4215   0.968   0.763   5.824
   82POPC   NTM 4216   0.858   0.778   5.727
   82POPC    CA 4217   0.774   0.885   5.783
   82POPC    CB 4218   0.828   1.029   5.773
   82POPC    OA 4219   0.792   1.079   5.647
   82POPC     P 4220   0.868   1.212   5.610
   82POPC    OB 4221   1.006   1.168   5.633
   82POPC    OC 4222   0.804   1.289   5.719
   82POPC    OD 4223   0.819   1.223   5.460
   82POPC    CC 4224   0.712   1.148   5.399
   82POPC    CD 4225   0.745   1.022   5.317
   82POPC    OE 4226   0.822   1.051   5.199
   82POPC   C1A 4227   0.903   0.956   5.155
   82POPC    OF 4228   0.914   0.851   5.219
   82POPC   C1B 4229   0.992   1.005   5.047
   82POPC   C1C 4230   0.955   0.968   4.903
   82POPC   C1D 4231   0.927   0.821   4.872
   82POPC   C1E 4232   0.971   0.795   4.728
   82POPC   C1F 4233   0.897   0.681   4.658
   82POPC   C1G 4234   0.961   0.658   4.522
   82POPC   C1H 4235   0.874   0.574   4.428
   82POPC   C1I 4236   0.959   0.521   4.311
   82POPC   C1J 4237   0.949   0.561   4.184
   82POPC   C1K 4238   0.846   0.665   4.138
   82POPC   C1L 4239   0.812   0.656   3.988
   82POPC   C1M 4240   0.746   0.524   3.947
   82POPC   C1N 4241   0.691   0.523   3.804
   82POPC   C1O 4242   0.796   0.558   3.697
   82POPC   C1P 4243   0.751   0.521   3.555
   82POPC   C1Q 4244   0.624   0.593   3.509
   82POPC   C1R 4245   0.576   0.540   3.374
   82POPC    CE 4246   0.620   0.931   5.296
   82POPC    OG 4247   0.492   0.971   5.241
   82POPC   C2A 4248   0.473   0.943   5.111
   82POPC    OH 4249   0.538   0.851   5.060
   82POPC   C2B 4250   0.349   1.001   5.050
   82POPC   C2C 4251   0.339   0.985   4.897
   82POPC   C2D 4252   0.260   1.093   4.819
   82POPC   C2E 4253   0.288   1.082   4.667
   82POPC   C2F 4254   0.237   1.191   4.572
   82POPC   C2G 4255   0.312   1.194   4.437
   82POPC   C2H 4256   0.236   1.271   4.328
   82POPC   C2I 4257   0.314   1.294   4.197
   82POPC   C2J 4258   0.220   1.347   4.087
   82POPC   C2K 4259   0.293   1.388   3.959
   82POPC   C2L 4260   0.195   1.426   3.847
   82POPC   C2M 4261   0.272   1.483   3.728
   82POPC   C2N 4262   0.191   1.501   3.599
   82POPC   C2O 4263   0.286   1.552   3.489
   82POPC   C2P 4264   0.223   1.558   3.350
   83POPC   CN1 4265   4.344   0.606   5.686
   83POPC   CN2 4266   4.552   0.575   5.579
   83POPC   CN3 4267   4.542   0.555   5.813
   83POPC   NTM 4268   4.488   0.630   5.700
   83POPC    CA 4269   4.500   0.777   5.720
   83POPC    CB 4270   4.636   0.847   5.725
   83POPC    OA 4271   4.698   0.834   5.600
   83POPC     P 4272   4.855   0.834   5.613
   83POPC    OB 4273   4.865   0.706   5.686
   83POPC    OC 4274   4.888   0.957   5.684
   83POPC    OD 4275   4.899   0.828   5.462
   83POPC    CC 4276   4.806   0.857   5.356
   83POPC    CD 4277   4.738   0.731   5.297
   83POPC    OE 4278   4.823   0.659   5.205
   83POPC   C1A 4279   4.797   0.532   5.182
   83POPC    OF 4280   4.708   0.473   5.245
   83POPC   C1B 4281   4.898   0.474   5.090
   83POPC   C1C 4282   4.848   0.357   5.006
   83POPC   C1D 4283   4.762   0.398   4.886
   83POPC   C1E 4284   4.739   0.272   4.804
   83POPC   C1F 4285   4.675   0.291   4.667
   83POPC   C1G 4286   4.677   0.155   4.598
   83POPC   C1H 4287   4.631   0.158   4.452
   83POPC   C1I 4288   4.638   0.016   4.392
   83POPC   C1J 4289   4.663  -0.004   4.263
   83POPC   C1K 4290   4.686   0.116   4.172
   83POPC   C1L 4291   4.717   0.085   4.025
   83POPC   C1M 4292   4.591   0.053   3.943
   83POPC   C1N 4293   4.602   0.092   3.795
   83POPC   C1O 4294   4.729   0.041   3.725
   83POPC   C1P 4295   4.715   0.038   3.573
   83POPC   C1Q 4296   4.721   0.173   3.502
   83POPC   C1R 4297   4.683   0.159   3.355
   83POPC    CE 4298   4.603   0.772   5.235
   83POPC    OG 4299   4.616   0.858   5.122
   83POPC   C2A 4300   4.601   0.804   5.002
   83POPC    OH 4301   4.532   0.703   4.986
   83POPC   C2B 4302   4.642   0.900   4.897
   83POPC   C2C 4303   4.668   0.838   4.761
   83POPC   C2D 4304   4.715   0.950   4.667
   83POPC   C2E 4305   4.741   0.893   4.529
   83POPC   C2F 4306   4.811   0.996   4.440
   83POPC   C2G 4307   4.845   0.929   4.307
   83POPC   C2H 4308   4.951   1.009   4.233
   83POPC   C2I 4309   4.998   0.933   4.110
   83POPC   C2J 4310   5.116   1.007   4.046
   83POPC   C2K 4311   5.169   0.932   3.925
   83POPC   C2L 4312   5.271   1.018   3.852
   83POPC   C2M 4313   5.314   0.953   3.721
   83POPC   C2N 4314   5.399   1.050   3.638
   83POPC   C2O 4315   5.406   1.006   3.492
   83POPC   C2P 4316   5.490   1.101   3.407
   84POPC   CN1 4317   6.280   2.069   5.756
   84POPC   CN2 4318   6.103   2.057   5.605
   84POPC   CN3 4319   6.056   2.039   5.841
   84POPC   NTM 4320   6.151   2.004   5.735
   84POPC    CA 4321   6.176   1.857   5.730
   84POPC    CB 4322   6.058   1.758   5.728
   84POPC    OA 4323   5.970   1.805   5.628
   84POPC     P 4324   5.831   1.738   5.608
   84POPC    OB 4325   5.758   1.854   5.663
   84POPC    OC 4326   5.839   1.615   5.687
   84POPC    OD 4327   5.829   1.727   5.451
   84POPC    CC 4328   5.948   1.704   5.374
   84POPC    CD 4329   6.016   1.833   5.322
   84POPC    OE 4330   5.933   1.903   5.227
   84POPC   C1A 4331   5.945   2.033   5.209
   84POPC    OF 4332   6.003   2.101   5.296
   84POPC   C1B 4333   5.846   2.079   5.109
   84POPC   C1C 4334   5.876   2.213   5.042
   84POPC   C1D 4335   5.963   2.200   4.917
   84POPC   C1E 4336   5.969   2.337   4.850
   84POPC   C1F 4337   6.016   2.327   4.706
   84POPC   C1G 4338   6.007   2.464   4.639
   84POPC   C1H 4339   6.034   2.450   4.489
   84POPC   C1I 4340   6.028   2.584   4.416
   84POPC   C1J 4341   6.017   2.581   4.284
   84POPC   C1K 4342   6.015   2.445   4.214
   84POPC   C1L 4343   5.979   2.449   4.065
   84POPC   C1M 4344   6.068   2.543   3.983
   84POPC   C1N 4345   6.072   2.501   3.836
   84POPC   C1O 4346   6.040   2.618   3.744
   84POPC   C1P 4347   6.087   2.598   3.599
   84POPC   C1Q 4348   6.048   2.463   3.538
   84POPC   C1R 4349   6.092   2.454   3.392
   84POPC    CE 4350   6.160   1.801   5.277
   84POPC    OG 4351   6.172   1.712   5.166
   84POPC   C2A 4352   6.153   1.765   5.045
   84POPC    OH 4353   6.147   1.887   5.029
   84POPC   C2B 4354   6.143   1.664   4.938
   84POPC   C2C 4355   6.101   1.730   4.807
   84POPC   C2D 4356   6.080   1.626   4.697
   84POPC   C2E 4357   6.047   1.701   4.568
   84POPC   C2F 4358   6.045   1.608   4.447
   84POPC   C2G 4359   6.015   1.692   4.323
   84POPC   C2H 4360   6.014   1.607   4.197
   84POPC   C2I 4361   5.957   1.687   4.079
   84POPC   C2J 4362   5.910   1.589   3.972
   84POPC   C2K 4363   5.838   1.656   3.855
   84POPC   C2L 4364   5.791   1.550   3.756
   84POPC   C2M 4365   5.714   1.615   3.642
   84POPC   C2N 4366   5.675   1.514   3.533
   84POPC   C2O 4367   5.595   1.586   3.424
   84POPC   C2P 4368   5.562   1.491   3.308
   85POPC   CN1 4369   2.084   1.719   5.767
   85POPC   CN2 4370   1.956   1.585   5.622
   85POPC   CN3 4371   1.915   1.571   5.854
   85POPC   NTM 4372   2.021   1.588   5.755
   85POPC    CA 4373   2.131   1.490   5.772
   85POPC    CB 4374   2.101   1.339   5.774
   85POPC    OA 4375   2.040   1.306   5.652
   85POPC     P 4376   2.015   1.152   5.630
   85POPC    OB 4377   1.881   1.143   5.690
   85POPC    OC 4378   2.129   1.091   5.699
   85POPC    OD 4379   2.022   1.148   5.472
   85POPC    CC 4380   2.119   1.226   5.400
   85POPC    CD 4381   2.062   1.357   5.341
   85POPC    OE 4382   1.967   1.332   5.235
   85POPC   C1A 4383   1.871   1.421   5.212
   85POPC    OF 4384   1.855   1.514   5.292
   85POPC   C1B 4385   1.778   1.371   5.109
   85POPC   C1C 4386   1.702   1.477   5.030
   85POPC   C1D 4387   1.786   1.546   4.922
   85POPC   C1E 4388   1.692   1.633   4.839
   85POPC   C1F 4389   1.759   1.690   4.714
   85POPC   C1G 4390   1.652   1.762   4.632
   85POPC   C1H 4391   1.703   1.794   4.492
   85POPC   C1I 4392   1.594   1.865   4.411
   85POPC   C1J 4393   1.584   1.843   4.280
   85POPC   C1K 4394   1.682   1.749   4.208
   85POPC   C1L 4395   1.663   1.743   4.056
   85POPC   C1M 4396   1.673   1.881   3.991
   85POPC   C1N 4397   1.714   1.878   3.843
   85POPC   C1O 4398   1.595   1.871   3.748
   85POPC   C1P 4399   1.633   1.916   3.607
   85POPC   C1Q 4400   1.735   1.824   3.539
   85POPC   C1R 4401   1.770   1.875   3.399
   85POPC    CE 4402   2.178   1.451   5.302
   85POPC    OG 4403   2.260   1.397   5.198
   85POPC   C2A 4404   2.222   1.429   5.075
   85POPC    OH 4405   2.168   1.537   5.052
   85POPC   C2B 4406   2.278   1.335   4.976
   85POPC   C2C 4407   2.209   1.336   4.840
   85POPC   C2D 4408   2.298   1.261   4.742
   85POPC   C2E 4409   2.244   1.274   4.600
   85POPC   C2F 4410   2.341   1.213   4.497
   85POPC   C2G 4411   2.279   1.229   4.359
   85POPC   C2H 4412   2.354   1.152   4.250
   85POPC   C2I 4413   2.269   1.155   4.123
   85POPC   C2J 4414   2.324   1.062   4.014
   85POPC   C2K 4415   2.222   1.052   3.901
   85POPC   C2L 4416   2.269   0.958   3.790
   85POPC   C2M 4417   2.159   0.940   3.686
   85POPC   C2N 4418   2.205   0.851   3.570
   85POPC   C2O 4419   2.093   0.830   3.469
   85POPC   C2P 4420   2.141   0.747   3.350
   86POPC   CN1 4421   5.619   4.522   5.680
   86POPC   CN2 4422   5.432   4.449   5.562
   86POPC   CN3 4423   5.424   4.461   5.801
   86POPC   NTM 4424   5.509   4.426   5.686
   86POPC    CA 4425   5.565   4.289   5.694
   86POPC    CB 4426   5.473   4.168   5.729
   86POPC    OA 4427   5.349   4.184   5.664
   86POPC     P 4428   5.294   4.063   5.581
   86POPC    OB 4429   5.192   4.141   5.514
   86POPC    OC 4430   5.268   3.965   5.688
   86POPC    OD 4431   5.404   4.011   5.486
   86POPC    CC 4432   5.469   4.073   5.376
   86POPC    CD 4433   5.427   4.194   5.293
   86POPC    OE 4434   5.322   4.176   5.194
   86POPC   C1A 4435   5.266   4.289   5.149
   86POPC    OF 4436   5.305   4.395   5.196
   86POPC   C1B 4437   5.161   4.276   5.045
   86POPC   C1C 4438   5.126   4.407   4.974
   86POPC   C1D 4439   5.173   4.410   4.828
   86POPC   C1E 4440   5.145   4.543   4.757
   86POPC   C1F 4441   5.227   4.551   4.628
   86POPC   C1G 4442   5.213   4.674   4.539
   86POPC   C1H 4443   5.301   4.657   4.414
   86POPC   C1I 4444   5.266   4.760   4.306
   86POPC   C1J 4445   5.259   4.726   4.177
   86POPC   C1K 4446   5.287   4.583   4.131
   86POPC   C1L 4447   5.308   4.563   3.980
   86POPC   C1M 4448   5.435   4.625   3.920
   86POPC   C1N 4449   5.469   4.581   3.776
   86POPC   C1O 4450   5.351   4.584   3.679
   86POPC   C1P 4451   5.383   4.635   3.537
   86POPC   C1Q 4452   5.478   4.557   3.447
   86POPC   C1R 4453   5.482   4.621   3.308
   86POPC    CE 4454   5.562   4.240   5.235
   86POPC    OG 4455   5.635   4.135   5.170
   86POPC   C2A 4456   5.650   4.155   5.039
   86POPC    OH 4457   5.666   4.271   5.001
   86POPC   C2B 4458   5.689   4.035   4.963
   86POPC   C2C 4459   5.647   4.046   4.816
   86POPC   C2D 4460   5.704   3.934   4.729
   86POPC   C2E 4461   5.665   3.958   4.583
   86POPC   C2F 4462   5.706   3.851   4.481
   86POPC   C2G 4463   5.648   3.888   4.343
   86POPC   C2H 4464   5.667   3.780   4.235
   86POPC   C2I 4465   5.587   3.815   4.108
   86POPC   C2J 4466   5.589   3.700   4.006
   86POPC   C2K 4467   5.500   3.731   3.884
   86POPC   C2L 4468   5.496   3.613   3.787
   86POPC   C2M 4469   5.409   3.644   3.665
   86POPC   C2N 4470   5.410   3.527   3.565
   86POPC   C2O 4471   5.330   3.561   3.440
   86POPC   C2P 4472   5.335   3.446   3.339
   87POPC   CN1 4473   5.659   3.258   5.760
   87POPC   CN2 4474   5.710   3.417   5.595
   87POPC   CN3 4475   5.803   3.445   5.810
   87POPC   NTM 4476   5.683   3.401   5.739
   87POPC    CA 4477   5.565   3.476   5.791
   87POPC    CB 4478   5.565   3.630   5.787
   87POPC    OA 4479   5.575   3.663   5.651
   87POPC     P 4480   5.624   3.807   5.615
   87POPC    OB 4481   5.767   3.785   5.642
   87POPC    OC 4482   5.551   3.886   5.715
   87POPC    OD 4483   5.583   3.791   5.464
   87POPC    CC 4484   5.465   3.722   5.418
   87POPC    CD 4485   5.501   3.601   5.330
   87POPC    OE 4486   5.559   3.641   5.205
   87POPC   C1A 4487   5.664   3.572   5.162
   87POPC    OF 4488   5.712   3.482   5.233
   87POPC   C1B 4489   5.722   3.636   5.041
   87POPC   C1C 4490   5.791   3.540   4.944
   87POPC   C1D 4491   5.693   3.455   4.863
   87POPC   C1E 4492   5.772   3.380   4.756
   87POPC   C1F 4493   5.683   3.302   4.660
   87POPC   C1G 4494   5.770   3.240   4.551
   87POPC   C1H 4495   5.688   3.173   4.441
   87POPC   C1I 4496   5.781   3.116   4.334
   87POPC   C1J 4497   5.762   3.139   4.205
   87POPC   C1K 4498   5.642   3.222   4.155
   87POPC   C1L 4499   5.608   3.199   4.007
   87POPC   C1M 4500   5.567   3.054   3.977
   87POPC   C1N 4501   5.511   3.034   3.836
   87POPC   C1O 4502   5.609   3.066   3.723
   87POPC   C1P 4503   5.559   3.018   3.586
   87POPC   C1Q 4504   5.429   3.087   3.542
   87POPC   C1R 4505   5.380   3.029   3.409
   87POPC    CE 4506   5.385   3.501   5.322
   87POPC    OG 4507   5.266   3.531   5.248
   87POPC   C2A 4508   5.264   3.489   5.121
   87POPC    OH 4509   5.354   3.414   5.080
   87POPC   C2B 4510   5.143   3.530   5.045
   87POPC   C2C 4511   5.153   3.512   4.893
   87POPC   C2D 4512   5.041   3.589   4.822
   87POPC   C2E 4513   5.048   3.583   4.669
   87POPC   C2F 4514   4.992   3.712   4.606
   87POPC   C2G 4515   5.008   3.714   4.453
   87POPC   C2H 4516   4.983   3.850   4.384
   87POPC   C2I 4517   5.026   3.841   4.236
   87POPC   C2J 4518   4.974   3.947   4.138
   87POPC   C2K 4519   5.026   3.918   3.996
   87POPC   C2L 4520   4.958   4.004   3.889
   87POPC   C2M 4521   5.012   3.977   3.748
   87POPC   C2N 4522   4.932   4.056   3.644
   87POPC   C2O 4523   4.994   4.044   3.504
   87POPC   C2P 4524   4.907   4.116   3.400
   88POPC   CN1 4525   3.811   3.499   5.808
   88POPC   CN2 4526   3.729   3.616   5.622
   88POPC   CN3 4527   3.759   3.733   5.831
   88POPC   NTM 4528   3.720   3.606   5.770
   88POPC    CA 4529   3.586   3.563   5.817
   88POPC    CB 4530   3.466   3.659   5.802
   88POPC    OA 4531   3.409   3.653   5.673
   88POPC     P 4532   3.378   3.796   5.612
   88POPC    OB 4533   3.514   3.851   5.617
   88POPC    OC 4534   3.283   3.837   5.718
   88POPC    OD 4535   3.308   3.745   5.481
   88POPC    CC 4536   3.335   3.623   5.407
   88POPC    CD 4537   3.472   3.590   5.345
   88POPC    OE 4538   3.501   3.674   5.232
   88POPC   C1A 4539   3.625   3.692   5.191
   88POPC    OF 4540   3.718   3.657   5.266
   88POPC   C1B 4541   3.627   3.792   5.081
   88POPC   C1C 4542   3.737   3.781   4.976
   88POPC   C1D 4543   3.715   3.671   4.872
   88POPC   C1E 4544   3.819   3.691   4.762
   88POPC   C1F 4545   3.823   3.572   4.666
   88POPC   C1G 4546   3.927   3.595   4.556
   88POPC   C1H 4547   3.935   3.467   4.473
   88POPC   C1I 4548   4.026   3.465   4.351
   88POPC   C1J 4549   3.994   3.492   4.224
   88POPC   C1K 4550   3.857   3.530   4.165
   88POPC   C1L 4551   3.851   3.536   4.010
   88POPC   C1M 4552   3.939   3.428   3.947
   88POPC   C1N 4553   3.916   3.354   3.815
   88POPC   C1O 4554   3.942   3.416   3.677
   88POPC   C1P 4555   3.966   3.297   3.583
   88POPC   C1Q 4556   3.993   3.333   3.437
   88POPC   C1R 4557   4.006   3.206   3.353
   88POPC    CE 4558   3.475   3.438   5.317
   88POPC    OG 4559   3.375   3.387   5.227
   88POPC   C2A 4560   3.414   3.372   5.100
   88POPC    OH 4561   3.534   3.359   5.074
   88POPC   C2B 4562   3.301   3.348   5.007
   88POPC   C2C 4563   3.337   3.342   4.857
   88POPC   C2D 4564   3.210   3.315   4.775
   88POPC   C2E 4565   3.231   3.300   4.623
   88POPC   C2F 4566   3.097   3.313   4.550
   88POPC   C2G 4567   3.108   3.305   4.398
   88POPC   C2H 4568   2.985   3.368   4.331
   88POPC   C2I 4569   2.995   3.370   4.178
   88POPC   C2J 4570   2.907   3.480   4.117
   88POPC   C2K 4571   2.943   3.502   3.969
   88POPC   C2L 4572   2.869   3.613   3.893
   88POPC   C2M 4573   2.932   3.631   3.755
   88POPC   C2N 4574   2.830   3.671   3.648
   88POPC   C2O 4575   2.898   3.675   3.510
   88POPC   C2P 4576   2.797   3.673   3.396
   89POPC   CN1 4577   4.337   2.441   5.785
   89POPC   CN2 4578   4.262   2.299   5.616
   89POPC   CN3 4579   4.217   2.247   5.851
   89POPC   NTM 4580   4.314   2.300   5.754
   89POPC    CA 4581   4.441   2.221   5.760
   89POPC    CB 4582   4.434   2.066   5.762
   89POPC    OA 4583   4.344   2.021   5.662
   89POPC     P 4584   4.330   1.864   5.651
   89POPC    OB 4585   4.204   1.853   5.727
   89POPC    OC 4586   4.453   1.811   5.709
   89POPC    OD 4587   4.313   1.843   5.497
   89POPC    CC 4588   4.404   1.908   5.405
   89POPC    CD 4589   4.347   2.040   5.349
   89POPC    OE 4590   4.236   2.021   5.261
   89POPC   C1A 4591   4.143   2.116   5.247
   89POPC    OF 4592   4.129   2.196   5.342
   89POPC   C1B 4593   4.043   2.073   5.147
   89POPC   C1C 4594   3.970   2.181   5.069
   89POPC   C1D 4595   4.048   2.227   4.946
   89POPC   C1E 4596   3.956   2.317   4.863
   89POPC   C1F 4597   4.023   2.360   4.733
   89POPC   C1G 4598   3.919   2.427   4.644
   89POPC   C1H 4599   3.974   2.450   4.503
   89POPC   C1I 4600   3.860   2.496   4.412
   89POPC   C1J 4601   3.868   2.485   4.280
   89POPC   C1K 4602   3.991   2.425   4.213
   89POPC   C1L 4603   3.980   2.422   4.061
   89POPC   C1M 4604   4.004   2.559   3.997
   89POPC   C1N 4605   4.008   2.560   3.844
   89POPC   C1O 4606   3.875   2.526   3.775
   89POPC   C1P 4607   3.876   2.562   3.626
   89POPC   C1Q 4608   3.987   2.492   3.548
   89POPC   C1R 4609   3.981   2.526   3.399
   89POPC    CE 4610   4.462   2.128   5.296
   89POPC    OG 4611   4.540   2.080   5.187
   89POPC   C2A 4612   4.506   2.128   5.067
   89POPC    OH 4613   4.432   2.226   5.058
   89POPC   C2B 4614   4.584   2.065   4.958
   89POPC   C2C 4615   4.502   2.051   4.829
   89POPC   C2D 4616   4.581   1.972   4.725
   89POPC   C2E 4617   4.502   1.963   4.594
   89POPC   C2F 4618   4.575   1.877   4.490
   89POPC   C2G 4619   4.493   1.873   4.361
   89POPC   C2H 4620   4.555   1.781   4.256
   89POPC   C2I 4621   4.462   1.775   4.135
   89POPC   C2J 4622   4.512   1.677   4.028
   89POPC   C2K 4623   4.406   1.662   3.919
   89POPC   C2L 4624   4.451   1.564   3.810
   89POPC   C2M 4625   4.337   1.538   3.712
   89POPC   C2N 4626   4.383   1.445   3.599
   89POPC   C2O 4627   4.266   1.411   3.507
   89POPC   C2P 4628   4.312   1.325   3.389
   90POPC   CN1 4629   1.555   5.007   5.870
   90POPC   CN2 4630   1.633   4.930   5.658
   90POPC   CN3 4631   1.749   4.872   5.858
   90POPC   NTM 4632   1.674   4.979   5.791
   90POPC    CA 4633   1.754   5.103   5.772
   90POPC    CB 4634   1.902   5.087   5.731
   90POPC    OA 4635   1.907   4.995   5.625
   90POPC     P 4636   2.038   4.917   5.587
   90POPC    OB 4637   1.986   4.782   5.587
   90POPC    OC 4638   2.129   4.956   5.697
   90POPC    OD 4639   2.085   4.980   5.454
   90POPC    CC 4640   1.984   5.051   5.381
   90POPC    CD 4641   1.877   5.000   5.287
   90POPC    OE 4642   1.931   4.927   5.174
   90POPC   C1A 4643   1.847   4.851   5.103
   90POPC    OF 4644   1.728   4.859   5.127
   90POPC   C1B 4645   1.911   4.765   5.002
   90POPC   C1C 4646   1.816   4.660   4.942
   90POPC   C1D 4647   1.726   4.720   4.833
   90POPC   C1E 4648   1.649   4.621   4.746
   90POPC   C1F 4649   1.551   4.698   4.657
   90POPC   C1G 4650   1.526   4.645   4.516
   90POPC   C1H 4651   1.452   4.750   4.431
   90POPC   C1I 4652   1.374   4.693   4.312
   90POPC   C1J 4653   1.410   4.690   4.184
   90POPC   C1K 4654   1.544   4.742   4.134
   90POPC   C1L 4655   1.561   4.750   3.981
   90POPC   C1M 4656   1.483   4.863   3.915
   90POPC   C1N 4657   1.542   4.929   3.789
   90POPC   C1O 4658   1.578   4.848   3.665
   90POPC   C1P 4659   1.556   4.941   3.545
   90POPC   C1Q 4660   1.597   4.890   3.407
   90POPC   C1R 4661   1.532   4.978   3.299
   90POPC    CE 4662   1.802   5.131   5.255
   90POPC    OG 4663   1.888   5.232   5.197
   90POPC   C2A 4664   1.887   5.228   5.064
   90POPC    OH 4665   1.780   5.206   5.009
   90POPC   C2B 4666   2.002   5.292   4.996
   90POPC   C2C 4667   1.992   5.267   4.845
   90POPC   C2D 4668   2.101   5.339   4.766
   90POPC   C2E 4669   2.082   5.328   4.615
   90POPC   C2F 4670   2.215   5.355   4.544
   90POPC   C2G 4671   2.198   5.370   4.393
   90POPC   C2H 4672   2.326   5.358   4.309
   90POPC   C2I 4673   2.288   5.393   4.165
   90POPC   C2J 4674   2.374   5.376   4.037
   90POPC   C2K 4675   2.407   5.246   3.960
   90POPC   C2L 4676   2.422   5.282   3.812
   90POPC   C2M 4677   2.483   5.179   3.716
   90POPC   C2N 4678   2.526   5.258   3.592
   90POPC   C2O 4679   2.593   5.175   3.482
   90POPC   C2P 4680   2.656   5.268   3.378
   91POPC   CN1 4681   5.200   5.370   5.792
   91POPC   CN2 4682   5.189   5.221   5.619
   91POPC   CN3 4683   5.106   5.172   5.848
   91POPC   NTM 4684   5.212   5.229   5.764
   91POPC    CA 4685   5.344   5.177   5.805
   91POPC    CB 4686   5.380   5.028   5.782
   91POPC    OA 4687   5.386   4.998   5.645
   91POPC     P 4688   5.454   4.859   5.618
   91POPC    OB 4689   5.361   4.761   5.676
   91POPC    OC 4690   5.586   4.860   5.684
   91POPC    OD 4691   5.472   4.859   5.462
   91POPC    CC 4692   5.511   4.982   5.399
   91POPC    CD 4693   5.402   5.069   5.333
   91POPC    OE 4694   5.362   5.009   5.210
   91POPC   C1A 4695   5.255   5.054   5.148
   91POPC    OF 4696   5.175   5.129   5.206
   91POPC   C1B 4697   5.255   5.000   5.011
   91POPC   C1C 4698   5.129   5.028   4.934
   91POPC   C1D 4699   5.129   5.172   4.888
   91POPC   C1E 4700   5.014   5.189   4.791
   91POPC   C1F 4701   5.078   5.243   4.664
   91POPC   C1G 4702   4.975   5.245   4.553
   91POPC   C1H 4703   5.046   5.289   4.426
   91POPC   C1I 4704   4.948   5.274   4.311
   91POPC   C1J 4705   4.974   5.332   4.195
   91POPC   C1K 4706   5.099   5.417   4.176
   91POPC   C1L 4707   5.122   5.453   4.029
   91POPC   C1M 4708   4.997   5.506   3.957
   91POPC   C1N 4709   5.027   5.532   3.810
   91POPC   C1O 4710   4.905   5.557   3.720
   91POPC   C1P 4711   4.939   5.548   3.571
   91POPC   C1Q 4712   5.056   5.638   3.528
   91POPC   C1R 4713   5.080   5.638   3.377
   91POPC    CE 4714   5.456   5.211   5.304
   91POPC    OG 4715   5.556   5.217   5.201
   91POPC   C2A 4716   5.516   5.262   5.081
   91POPC    OH 4717   5.418   5.335   5.073
   91POPC   C2B 4718   5.616   5.238   4.974
   91POPC   C2C 4719   5.586   5.296   4.835
   91POPC   C2D 4720   5.712   5.284   4.748
   91POPC   C2E 4721   5.697   5.317   4.599
   91POPC   C2F 4722   5.829   5.292   4.525
   91POPC   C2G 4723   5.812   5.293   4.373
   91POPC   C2H 4724   5.930   5.230   4.297
   91POPC   C2I 4725   5.890   5.204   4.151
   91POPC   C2J 4726   5.989   5.120   4.069
   91POPC   C2K 4727   5.924   5.076   3.937
   91POPC   C2L 4728   6.022   5.009   3.840
   91POPC   C2M 4729   5.951   4.957   3.714
   91POPC   C2N 4730   6.053   4.911   3.609
   91POPC   C2O 4731   5.984   4.851   3.486
   91POPC   C2P 4732   6.087   4.815   3.378
   92POPC   CN1 4733   1.519   2.442   5.786
   92POPC   CN2 4734   1.533   2.319   5.585
   92POPC   CN3 4735   1.529   2.199   5.794
   92POPC   NTM 4736   1.576   2.321   5.727
   92POPC    CA 4737   1.724   2.332   5.733
   92POPC    CB 4738   1.808   2.203   5.728
   92POPC    OA 4739   1.755   2.120   5.626
   92POPC     P 4740   1.813   1.975   5.609
   92POPC    OB 4741   1.700   1.898   5.662
   92POPC    OC 4742   1.934   1.983   5.693
   92POPC    OD 4743   1.846   1.975   5.456
   92POPC    CC 4744   1.890   2.093   5.386
   92POPC    CD 4745   1.778   2.170   5.312
   92POPC    OE 4746   1.739   2.104   5.191
   92POPC   C1A 4747   1.618   2.126   5.141
   92POPC    OF 4748   1.537   2.190   5.209
   92POPC   C1B 4749   1.598   2.034   5.026
   92POPC   C1C 4750   1.526   2.084   4.900
   92POPC   C1D 4751   1.592   2.199   4.822
   92POPC   C1E 4752   1.518   2.215   4.688
   92POPC   C1F 4753   1.482   2.360   4.655
   92POPC   C1G 4754   1.373   2.372   4.548
   92POPC   C1H 4755   1.415   2.329   4.407
   92POPC   C1I 4756   1.299   2.341   4.308
   92POPC   C1J 4757   1.320   2.359   4.178
   92POPC   C1K 4758   1.462   2.373   4.121
   92POPC   C1L 4759   1.459   2.415   3.974
   92POPC   C1M 4760   1.592   2.478   3.929
   92POPC   C1N 4761   1.585   2.541   3.790
   92POPC   C1O 4762   1.568   2.438   3.677
   92POPC   C1P 4763   1.538   2.500   3.540
   92POPC   C1Q 4764   1.646   2.597   3.489
   92POPC   C1R 4765   1.606   2.659   3.356
   92POPC    CE 4766   1.819   2.318   5.296
   92POPC    OG 4767   1.935   2.349   5.217
   92POPC   C2A 4768   1.907   2.394   5.094
   92POPC    OH 4769   1.797   2.446   5.073
   92POPC   C2B 4770   2.021   2.397   4.999
   92POPC   C2C 4771   1.974   2.404   4.853
   92POPC   C2D 4772   2.088   2.400   4.751
   92POPC   C2E 4773   2.042   2.419   4.605
   92POPC   C2F 4774   2.154   2.374   4.510
   92POPC   C2G 4775   2.136   2.384   4.357
   92POPC   C2H 4776   2.233   2.285   4.292
   92POPC   C2I 4777   2.244   2.281   4.139
   92POPC   C2J 4778   2.315   2.153   4.090
   92POPC   C2K 4779   2.309   2.138   3.937
   92POPC   C2L 4780   2.395   2.027   3.877
   92POPC   C2M 4781   2.390   2.038   3.724
   92POPC   C2N 4782   2.482   1.941   3.650
   92POPC   C2O 4783   2.473   1.966   3.500
   92POPC   C2P 4784   2.568   1.876   3.420
   93POPC   CN1 4785   0.315   1.091   5.817
   93POPC   CN2 4786   0.478   1.135   5.655
   93POPC   CN3 4787   0.528   1.176   5.887
   93POPC   NTM 4788   0.425   1.182   5.784
   93POPC    CA 4789   0.372   1.320   5.770
   93POPC    CB 4790   0.469   1.438   5.746
   93POPC    OA 4791   0.550   1.420   5.631
   93POPC     P 4792   0.629   1.550   5.584
   93POPC    OB 4793   0.763   1.527   5.534
   93POPC    OC 4794   0.620   1.643   5.698
   93POPC    OD 4795   0.539   1.612   5.473
   93POPC    CC 4796   0.444   1.534   5.399
   93POPC    CD 4797   0.474   1.411   5.313
   93POPC    OE 4798   0.551   1.435   5.192
   93POPC   C1A 4799   0.589   1.333   5.115
   93POPC    OF 4800   0.548   1.221   5.143
   93POPC   C1B 4801   0.669   1.371   4.996
   93POPC   C1C 4802   0.735   1.262   4.910
   93POPC   C1D 4803   0.636   1.177   4.829
   93POPC   C1E 4804   0.699   1.109   4.706
   93POPC   C1F 4805   0.617   0.988   4.663
   93POPC   C1G 4806   0.641   0.938   4.520
   93POPC   C1H 4807   0.518   0.861   4.470
   93POPC   C1I 4808   0.547   0.774   4.348
   93POPC   C1J 4809   0.528   0.808   4.220
   93POPC   C1K 4810   0.472   0.941   4.170
   93POPC   C1L 4811   0.436   0.939   4.020
   93POPC   C1M 4812   0.326   0.838   3.987
   93POPC   C1N 4813   0.273   0.846   3.843
   93POPC   C1O 4814   0.379   0.818   3.736
   93POPC   C1P 4815   0.316   0.791   3.599
   93POPC   C1Q 4816   0.244   0.911   3.538
   93POPC   C1R 4817   0.184   0.873   3.403
   93POPC    CE 4818   0.333   1.351   5.297
   93POPC    OG 4819   0.242   1.437   5.228
   93POPC   C2A 4820   0.214   1.393   5.105
   93POPC    OH 4821   0.201   1.272   5.087
   93POPC   C2B 4822   0.164   1.497   5.013
   93POPC   C2C 4823   0.203   1.465   4.869
   93POPC   C2D 4824   0.138   1.564   4.772
   93POPC   C2E 4825   0.169   1.535   4.626
   93POPC   C2F 4826   0.103   1.638   4.535
   93POPC   C2G 4827   0.140   1.618   4.388
   93POPC   C2H 4828   0.076   1.722   4.296
   93POPC   C2I 4829   0.135   1.708   4.156
   93POPC   C2J 4830   0.074   1.803   4.052
   93POPC   C2K 4831   0.164   1.798   3.929
   93POPC   C2L 4832   0.112   1.874   3.807
   93POPC   C2M 4833   0.220   1.866   3.699
   93POPC   C2N 4834   0.176   1.917   3.562
   93POPC   C2O 4835   0.294   1.902   3.464
   93POPC   C2P 4836   0.254   1.934   3.320
   94POPC   CN1 4837   2.154   4.683   5.846
   94POPC   CN2 4838   2.261   4.600   5.647
   94POPC   CN3 4839   2.282   4.495   5.863
   94POPC   NTM 4840   2.276   4.623   5.793
   94POPC    CA 4841   2.392   4.709   5.824
   94POPC    CB 4842   2.534   4.669   5.780
   94POPC    OA 4843   2.573   4.693   5.645
   94POPC     P 4844   2.702   4.606   5.613
   94POPC    OB 4845   2.685   4.491   5.700
   94POPC    OC 4846   2.810   4.695   5.657
   94POPC    OD 4847   2.711   4.560   5.465
   94POPC    CC 4848   2.666   4.646   5.362
   94POPC    CD 4849   2.515   4.641   5.330
   94POPC    OE 4850   2.478   4.537   5.238
   94POPC   C1A 4851   2.349   4.510   5.222
   94POPC    OF 4852   2.267   4.555   5.303
   94POPC   C1B 4853   2.324   4.415   5.112
   94POPC   C1C 4854   2.203   4.451   5.025
   94POPC   C1D 4855   2.233   4.521   4.892
   94POPC   C1E 4856   2.104   4.511   4.812
   94POPC   C1F 4857   2.096   4.566   4.670
   94POPC   C1G 4858   1.968   4.506   4.612
   94POPC   C1H 4859   1.937   4.547   4.469
   94POPC   C1I 4860   1.821   4.464   4.414
   94POPC   C1J 4861   1.835   4.415   4.291
   94POPC   C1K 4862   1.968   4.448   4.221
   94POPC   C1L 4863   1.962   4.445   4.068
   94POPC   C1M 4864   1.866   4.549   4.013
   94POPC   C1N 4865   1.895   4.581   3.867
   94POPC   C1O 4866   1.845   4.478   3.767
   94POPC   C1P 4867   1.826   4.546   3.631
   94POPC   C1Q 4868   1.950   4.553   3.542
   94POPC   C1R 4869   1.909   4.607   3.405
   94POPC    CE 4870   2.484   4.781   5.274
   94POPC    OG 4871   2.558   4.813   5.155
   94POPC   C2A 4872   2.501   4.771   5.043
   94POPC    OH 4873   2.379   4.760   5.036
   94POPC   C2B 4874   2.593   4.765   4.928
   94POPC   C2C 4875   2.529   4.739   4.792
   94POPC   C2D 4876   2.640   4.733   4.687
   94POPC   C2E 4877   2.588   4.731   4.544
   94POPC   C2F 4878   2.705   4.753   4.447
   94POPC   C2G 4879   2.656   4.733   4.304
   94POPC   C2H 4880   2.762   4.758   4.198
   94POPC   C2I 4881   2.713   4.688   4.072
   94POPC   C2J 4882   2.804   4.701   3.951
   94POPC   C2K 4883   2.760   4.595   3.849
   94POPC   C2L 4884   2.843   4.600   3.721
   94POPC   C2M 4885   2.805   4.484   3.629
   94POPC   C2N 4886   2.883   4.494   3.498
   94POPC   C2O 4887   2.843   4.382   3.402
   94POPC   C2P 4888   2.929   4.385   3.275
   95POPC   CN1 4889   3.160   1.416   5.890
   95POPC   CN2 4890   3.227   1.346   5.669
   95POPC   CN3 4891   3.295   1.218   5.861
   95POPC   NTM 4892   3.266   1.353   5.811
   95POPC    CA 4893   3.385   1.441   5.822
   95POPC    CB 4894   3.519   1.379   5.780
   95POPC    OA 4895   3.510   1.340   5.645
   95POPC     P 4896   3.635   1.259   5.595
   95POPC    OB 4897   3.594   1.133   5.660
   95POPC    OC 4898   3.753   1.331   5.646
   95POPC    OD 4899   3.605   1.267   5.441
   95POPC    CC 4900   3.547   1.386   5.383
   95POPC    CD 4901   3.408   1.368   5.320
   95POPC    OE 4902   3.422   1.289   5.201
   95POPC   C1A 4903   3.338   1.189   5.180
   95POPC    OF 4904   3.258   1.155   5.268
   95POPC   C1B 4905   3.392   1.109   5.068
   95POPC   C1C 4906   3.292   1.058   4.965
   95POPC   C1D 4907   3.236   1.163   4.869
   95POPC   C1E 4908   3.160   1.085   4.763
   95POPC   C1F 4909   3.094   1.169   4.654
   95POPC   C1G 4910   3.004   1.076   4.572
   95POPC   C1H 4911   2.921   1.150   4.466
   95POPC   C1I 4912   2.831   1.052   4.391
   95POPC   C1J 4913   2.847   1.033   4.261
   95POPC   C1K 4914   2.948   1.115   4.181
   95POPC   C1L 4915   2.922   1.115   4.029
   95POPC   C1M 4916   2.779   1.158   3.994
   95POPC   C1N 4917   2.756   1.195   3.847
   95POPC   C1O 4918   2.770   1.077   3.751
   95POPC   C1P 4919   2.707   1.110   3.615
   95POPC   C1Q 4920   2.800   1.187   3.521
   95POPC   C1R 4921   2.724   1.231   3.396
   95POPC    CE 4922   3.338   1.504   5.298
   95POPC    OG 4923   3.384   1.587   5.190
   95POPC   C2A 4924   3.323   1.569   5.073
   95POPC    OH 4925   3.214   1.513   5.065
   95POPC   C2B 4926   3.385   1.649   4.965
   95POPC   C2C 4927   3.381   1.587   4.825
   95POPC   C2D 4928   3.462   1.674   4.729
   95POPC   C2E 4929   3.457   1.620   4.585
   95POPC   C2F 4930   3.546   1.701   4.490
   95POPC   C2G 4931   3.533   1.646   4.348
   95POPC   C2H 4932   3.627   1.713   4.248
   95POPC   C2I 4933   3.609   1.648   4.111
   95POPC   C2J 4934   3.713   1.691   4.008
   95POPC   C2K 4935   3.698   1.606   3.881
   95POPC   C2L 4936   3.804   1.636   3.775
   95POPC   C2M 4937   3.795   1.533   3.662
   95POPC   C2N 4938   3.886   1.569   3.545
   95POPC   C2O 4939   3.876   1.464   3.434
   95POPC   C2P 4940   3.955   1.508   3.311
   96POPC   CN1 4941   1.125   3.090   5.712
   96POPC   CN2 4942   1.316   3.131   5.588
   96POPC   CN3 4943   1.334   3.132   5.826
   96POPC   NTM 4944   1.247   3.168   5.713
   96POPC    CA 4945   1.207   3.311   5.718
   96POPC    CB 4946   1.316   3.420   5.729
   96POPC    OA 4947   1.403   3.405   5.620
   96POPC     P 4948   1.532   3.496   5.612
   96POPC    OB 4949   1.609   3.383   5.667
   96POPC    OC 4950   1.489   3.605   5.703
   96POPC    OD 4951   1.542   3.503   5.455
   96POPC    CC 4952   1.430   3.511   5.365
   96POPC    CD 4953   1.384   3.372   5.317
   96POPC    OE 4954   1.477   3.309   5.225
   96POPC   C1A 4955   1.483   3.178   5.212
   96POPC    OF 4956   1.425   3.105   5.295
   96POPC   C1B 4957   1.589   3.140   5.116
   96POPC   C1C 4958   1.566   3.008   5.042
   96POPC   C1D 4959   1.461   3.020   4.931
   96POPC   C1E 4960   1.460   2.889   4.852
   96POPC   C1F 4961   1.390   2.909   4.718
   96POPC   C1G 4962   1.414   2.787   4.629
   96POPC   C1H 4963   1.381   2.824   4.484
   96POPC   C1I 4964   1.406   2.704   4.393
   96POPC   C1J 4965   1.394   2.716   4.261
   96POPC   C1K 4966   1.353   2.849   4.197
   96POPC   C1L 4967   1.368   2.851   4.044
   96POPC   C1M 4968   1.292   2.738   3.975
   96POPC   C1N 4969   1.271   2.763   3.826
   96POPC   C1O 4970   1.237   2.632   3.755
   96POPC   C1P 4971   1.203   2.644   3.606
   96POPC   C1Q 4972   1.273   2.757   3.530
   96POPC   C1R 4973   1.233   2.758   3.383
   96POPC    CE 4974   1.239   3.384   5.267
   96POPC    OG 4975   1.223   3.457   5.146
   96POPC   C2A 4976   1.257   3.389   5.037
   96POPC    OH 4977   1.235   3.268   5.027
   96POPC   C2B 4978   1.302   3.479   4.930
   96POPC   C2C 4979   1.293   3.421   4.790
   96POPC   C2D 4980   1.339   3.531   4.696
   96POPC   C2E 4981   1.326   3.487   4.551
   96POPC   C2F 4982   1.350   3.607   4.460
   96POPC   C2G 4983   1.351   3.557   4.316
   96POPC   C2H 4984   1.386   3.670   4.219
   96POPC   C2I 4985   1.421   3.607   4.085
   96POPC   C2J 4986   1.477   3.712   3.990
   96POPC   C2K 4987   1.532   3.644   3.865
   96POPC   C2L 4988   1.594   3.748   3.771
   96POPC   C2M 4989   1.638   3.682   3.641
   96POPC   C2N 4990   1.695   3.787   3.545
   96POPC   C2O 4991   1.706   3.728   3.404
   96POPC   C2P 4992   1.782   3.823   3.311
   97POPC   CN1 4993   4.663   2.531   5.715
   97POPC   CN2 4994   4.751   2.706   5.589
   97POPC   CN3 4995   4.820   2.671   5.816
   97POPC   NTM 4996   4.706   2.670   5.725
   97POPC    CA 4997   4.601   2.760   5.780
   97POPC    CB 4998   4.620   2.914   5.775
   97POPC    OA 4999   4.597   2.960   5.644
   97POPC     P 5000   4.646   3.110   5.624
   97POPC    OB 5001   4.783   3.110   5.676
   97POPC    OC 5002   4.545   3.170   5.710
   97POPC    OD 5003   4.623   3.127   5.469
   97POPC    CC 5004   4.526   3.054   5.393
   97POPC    CD 5005   4.570   2.916   5.337
   97POPC    OE 5006   4.650   2.924   5.217
   97POPC   C1A 5007   4.733   2.825   5.186
   97POPC    OF 5008   4.742   2.728   5.262
   97POPC   C1B 5009   4.817   2.861   5.069
   97POPC   C1C 5010   4.876   2.750   4.982
   97POPC   C1D 5011   4.775   2.706   4.875
   97POPC   C1E 5012   4.849   2.643   4.758
   97POPC   C1F 5013   4.748   2.597   4.654
   97POPC   C1G 5014   4.819   2.535   4.534
   97POPC   C1H 5015   4.719   2.475   4.435
   97POPC   C1I 5016   4.795   2.391   4.332
   97POPC   C1J 5017   4.804   2.425   4.203
   97POPC   C1K 5018   4.734   2.547   4.143
   97POPC   C1L 5019   4.703   2.527   3.994
   97POPC   C1M 5020   4.616   2.403   3.969
   97POPC   C1N 5021   4.561   2.390   3.827
   97POPC   C1O 5022   4.668   2.366   3.720
   97POPC   C1P 5023   4.605   2.336   3.583
   97POPC   C1Q 5024   4.516   2.450   3.532
   97POPC   C1R 5025   4.464   2.420   3.391
   97POPC    CE 5026   4.444   2.831   5.318
   97POPC    OG 5027   4.351   2.879   5.221
   97POPC   C2A 5028   4.376   2.837   5.097
   97POPC    OH 5029   4.417   2.722   5.081
   97POPC   C2B 5030   4.314   2.924   4.994
   97POPC   C2C 5031   4.363   2.909   4.850
   97POPC   C2D 5032   4.287   3.009   4.761
   97POPC   C2E 5033   4.311   2.985   4.612
   97POPC   C2F 5034   4.226   3.074   4.519
   97POPC   C2G 5035   4.259   3.041   4.373
   97POPC   C2H 5036   4.185   3.126   4.268
   97POPC   C2I 5037   4.232   3.093   4.126
   97POPC   C2J 5038   4.184   3.199   4.027
   97POPC   C2K 5039   4.246   3.202   3.885
   97POPC   C2L 5040   4.252   3.348   3.835
   97POPC   C2M 5041   4.290   3.373   3.689
   97POPC   C2N 5042   4.283   3.518   3.641
   97POPC   C2O 5043   4.319   3.523   3.492
   97POPC   C2P 5044   4.263   3.643   3.415
   98POPC   CN1 5045   5.193   3.452   5.703
   98POPC   CN2 5046   5.054   3.308   5.581
   98POPC   CN3 5047   5.023   3.318   5.813
   98POPC   NTM 5048   5.126   3.321   5.709
   98POPC    CA 5049   5.229   3.218   5.736
   98POPC    CB 5050   5.192   3.069   5.735
   98POPC    OA 5051   5.164   3.028   5.604
   98POPC     P 5052   5.087   2.891   5.602
   98POPC    OB 5053   4.983   2.912   5.704
   98POPC    OC 5054   5.192   2.795   5.638
   98POPC    OD 5055   5.032   2.877   5.456
   98POPC    CC 5056   5.111   2.926   5.347
   98POPC    CD 5057   5.082   3.072   5.306
   98POPC    OE 5058   4.961   3.090   5.228
   98POPC   C1A 5059   4.906   3.211   5.221
   98POPC    OF 5060   4.949   3.300   5.295
   98POPC   C1B 5061   4.774   3.207   5.152
   98POPC   C1C 5062   4.730   3.330   5.074
   98POPC   C1D 5063   4.758   3.315   4.925
   98POPC   C1E 5064   4.687   3.429   4.853
   98POPC   C1F 5065   4.709   3.424   4.702
   98POPC   C1G 5066   4.663   3.557   4.642
   98POPC   C1H 5067   4.687   3.557   4.491
   98POPC   C1I 5068   4.649   3.691   4.428
   98POPC   C1J 5069   4.672   3.710   4.299
   98POPC   C1K 5070   4.738   3.597   4.218
   98POPC   C1L 5071   4.783   3.636   4.076
   98POPC   C1M 5072   4.674   3.705   3.993
   98POPC   C1N 5073   4.716   3.724   3.848
   98POPC   C1O 5074   4.595   3.765   3.764
   98POPC   C1P 5075   4.629   3.795   3.617
   98POPC   C1Q 5076   4.701   3.680   3.547
   98POPC   C1R 5077   4.703   3.699   3.395
   98POPC    CE 5078   5.211   3.136   5.251
   98POPC    OG 5079   5.275   3.077   5.137
   98POPC   C2A 5080   5.238   3.127   5.019
   98POPC    OH 5081   5.149   3.212   5.010
   98POPC   C2B 5082   5.308   3.064   4.905
   98POPC   C2C 5083   5.221   3.068   4.779
   98POPC   C2D 5084   5.279   2.982   4.667
   98POPC   C2E 5085   5.189   2.994   4.544
   98POPC   C2F 5086   5.233   2.901   4.431
   98POPC   C2G 5087   5.141   2.926   4.311
   98POPC   C2H 5088   5.166   2.832   4.194
   98POPC   C2I 5089   5.066   2.867   4.083
   98POPC   C2J 5090   5.072   2.768   3.967
   98POPC   C2K 5091   4.968   2.802   3.860
   98POPC   C2L 5092   4.972   2.694   3.752
   98POPC   C2M 5093   4.882   2.719   3.631
   98POPC   C2N 5094   4.907   2.604   3.532
   98POPC   C2O 5095   4.831   2.619   3.400
   98POPC   C2P 5096   4.857   2.497   3.312
   99POPC   CN1 5097   3.837   2.548   5.637
   99POPC   CN2 5098   3.647   2.669   5.576
   99POPC   CN3 5099   3.672   2.616   5.804
   99POPC   NTM 5100   3.695   2.565   5.668
   99POPC    CA 5101   3.625   2.436   5.642
   99POPC    CB 5102   3.476   2.417   5.681
   99POPC    OA 5103   3.394   2.521   5.630
   99POPC     P 5104   3.242   2.480   5.603
   99POPC    OB 5105   3.181   2.582   5.689
   99POPC    OC 5106   3.238   2.339   5.641
   99POPC    OD 5107   3.227   2.510   5.450
   99POPC    CC 5108   3.305   2.445   5.348
   99POPC    CD 5109   3.430   2.525   5.306
   99POPC    OE 5110   3.400   2.650   5.242
   99POPC   C1A 5111   3.494   2.743   5.231
   99POPC    OF 5112   3.587   2.749   5.312
   99POPC   C1B 5113   3.468   2.830   5.115
   99POPC   C1C 5114   3.552   2.956   5.102
   99POPC   C1D 5115   3.580   2.963   4.953
   99POPC   C1E 5116   3.623   3.098   4.898
   99POPC   C1F 5117   3.619   3.077   4.747
   99POPC   C1G 5118   3.660   3.195   4.661
   99POPC   C1H 5119   3.643   3.149   4.517
   99POPC   C1I 5120   3.716   3.242   4.422
   99POPC   C1J 5121   3.686   3.254   4.294
   99POPC   C1K 5122   3.572   3.171   4.235
   99POPC   C1L 5123   3.532   3.215   4.095
   99POPC   C1M 5124   3.640   3.192   3.990
   99POPC   C1N 5125   3.591   3.203   3.845
   99POPC   C1O 5126   3.590   3.346   3.790
   99POPC   C1P 5127   3.599   3.366   3.638
   99POPC   C1Q 5128   3.626   3.243   3.550
   99POPC   C1R 5129   3.635   3.282   3.402
   99POPC    CE 5130   3.528   2.435   5.228
   99POPC    OG 5131   3.482   2.376   5.106
   99POPC   C2A 5132   3.511   2.441   4.993
   99POPC    OH 5133   3.601   2.524   4.991
   99POPC   C2B 5134   3.451   2.372   4.877
   99POPC   C2C 5135   3.401   2.464   4.766
   99POPC   C2D 5136   3.358   2.381   4.645
   99POPC   C2E 5137   3.284   2.472   4.548
   99POPC   C2F 5138   3.271   2.419   4.405
   99POPC   C2G 5139   3.182   2.519   4.330
   99POPC   C2H 5140   3.150   2.477   4.187
   99POPC   C2I 5141   3.047   2.573   4.126
   99POPC   C2J 5142   3.014   2.536   3.981
   99POPC   C2K 5143   2.938   2.651   3.916
   99POPC   C2L 5144   2.890   2.613   3.776
   99POPC   C2M 5145   2.821   2.730   3.706
   99POPC   C2N 5146   2.772   2.686   3.569
   99POPC   C2O 5147   2.720   2.802   3.484
   99POPC   C2P 5148   2.677   2.751   3.347
  100POPC   CN1 5149   6.118   5.965   5.663
  100POPC   CN2 5150   5.982   6.122   5.551
  100POPC   CN3 5151   6.058   6.172   5.769
  100POPC   NTM 5152   6.011   6.063   5.683
  100POPC    CA 5153   5.895   5.996   5.749
  100POPC    CB 5154   5.761   6.071   5.760
  100POPC    OA 5155   5.692   6.065   5.637
  100POPC     P 5156   5.591   6.188   5.620
  100POPC    OB 5157   5.679   6.299   5.660
  100POPC    OC 5158   5.489   6.142   5.715
  100POPC    OD 5159   5.557   6.178   5.468
  100POPC    CC 5160   5.585   6.062   5.388
  100POPC    CD 5161   5.717   6.062   5.309
  100POPC    OE 5162   5.712   6.156   5.201
  100POPC   C1A 5163   5.825   6.206   5.154
  100POPC    OF 5164   5.929   6.192   5.221
  100POPC   C1B 5165   5.795   6.304   5.048
  100POPC   C1C 5166   5.905   6.329   4.944
  100POPC   C1D 5167   5.924   6.214   4.845
  100POPC   C1E 5168   6.019   6.266   4.737
  100POPC   C1F 5169   6.040   6.168   4.622
  100POPC   C1G 5170   6.127   6.238   4.518
  100POPC   C1H 5171   6.138   6.160   4.388
  100POPC   C1I 5172   6.232   6.233   4.292
  100POPC   C1J 5173   6.205   6.243   4.162
  100POPC   C1K 5174   6.079   6.178   4.105
  100POPC   C1L 5175   6.077   6.177   3.952
  100POPC   C1M 5176   6.186   6.091   3.888
  100POPC   C1N 5177   6.158   6.059   3.741
  100POPC   C1O 5178   6.151   6.178   3.645
  100POPC   C1P 5179   6.155   6.131   3.499
  100POPC   C1Q 5180   6.032   6.050   3.456
  100POPC   C1R 5181   6.045   6.001   3.312
  100POPC    CE 5182   5.758   5.918   5.270
  100POPC    OG 5183   5.683   5.846   5.172
  100POPC   C2A 5184   5.707   5.881   5.045
  100POPC    OH 5185   5.819   5.923   5.015
  100POPC   C2B 5186   5.608   5.829   4.948
  100POPC   C2C 5187   5.650   5.824   4.801
  100POPC   C2D 5188   5.534   5.776   4.712
  100POPC   C2E 5189   5.561   5.804   4.564
  100POPC   C2F 5190   5.437   5.780   4.477
  100POPC   C2G 5191   5.456   5.824   4.332
  100POPC   C2H 5192   5.328   5.801   4.250
  100POPC   C2I 5193   5.342   5.838   4.102
  100POPC   C2J 5194   5.207   5.827   4.030
  100POPC   C2K 5195   5.215   5.859   3.880
  100POPC   C2L 5196   5.078   5.872   3.813
  100POPC   C2M 5197   5.050   6.000   3.734
  100POPC   C2N 5198   4.996   5.976   3.592
  100POPC   C2O 5199   4.977   6.105   3.513
  100POPC   C2P 5200   4.925   6.076   3.372
  101POPC   CN1 5201   0.964   5.498   5.814
  101POPC   CN2 5202   1.005   5.357   5.625
  101POPC   CN3 5203   0.960   5.257   5.838
  101POPC   NTM 5204   1.023   5.371   5.772
  101POPC    CA 5205   1.164   5.388   5.813
  101POPC    CB 5206   1.274   5.294   5.764
  101POPC    OA 5207   1.280   5.285   5.623
  101POPC     P 5208   1.392   5.187   5.582
  101POPC    OB 5209   1.334   5.066   5.644
  101POPC    OC 5210   1.510   5.250   5.645
  101POPC    OD 5211   1.394   5.183   5.428
  101POPC    CC 5212   1.378   5.306   5.357
  101POPC    CD 5213   1.235   5.325   5.303
  101POPC    OE 5214   1.211   5.238   5.192
  101POPC   C1A 5215   1.088   5.193   5.173
  101POPC    OF 5216   0.998   5.219   5.254
  101POPC   C1B 5217   1.085   5.100   5.058
  101POPC   C1C 5218   0.961   5.119   4.970
  101POPC   C1D 5219   0.965   5.243   4.881
  101POPC   C1E 5220   0.832   5.244   4.806
  101POPC   C1F 5221   0.831   5.328   4.678
  101POPC   C1G 5222   0.705   5.291   4.601
  101POPC   C1H 5223   0.711   5.335   4.455
  101POPC   C1I 5224   0.593   5.279   4.375
  101POPC   C1J 5225   0.605   5.261   4.244
  101POPC   C1K 5226   0.734   5.302   4.172
  101POPC   C1L 5227   0.719   5.318   4.020
  101POPC   C1M 5228   0.621   5.429   3.982
  101POPC   C1N 5229   0.630   5.471   3.835
  101POPC   C1O 5230   0.596   5.359   3.736
  101POPC   C1P 5231   0.579   5.413   3.593
  101POPC   C1Q 5232   0.708   5.471   3.534
  101POPC   C1R 5233   0.682   5.529   3.395
  101POPC    CE 5234   1.210   5.474   5.272
  101POPC    OG 5235   1.293   5.532   5.171
  101POPC   C2A 5236   1.234   5.558   5.054
  101POPC    OH 5237   1.111   5.560   5.045
  101POPC   C2B 5238   1.327   5.611   4.951
  101POPC   C2C 5239   1.289   5.579   4.806
  101POPC   C2D 5240   1.378   5.654   4.706
  101POPC   C2E 5241   1.343   5.627   4.559
  101POPC   C2F 5242   1.447   5.684   4.460
  101POPC   C2G 5243   1.415   5.649   4.313
  101POPC   C2H 5244   1.535   5.656   4.217
  101POPC   C2I 5245   1.500   5.611   4.074
  101POPC   C2J 5246   1.617   5.541   4.003
  101POPC   C2K 5247   1.590   5.479   3.864
  101POPC   C2L 5248   1.696   5.373   3.830
  101POPC   C2M 5249   1.674   5.272   3.715
  101POPC   C2N 5250   1.688   5.315   3.569
  101POPC   C2O 5251   1.764   5.204   3.495
  101POPC   C2P 5252   1.769   5.216   3.343
  102POPC   CN1 5253   3.084   5.806   5.719
  102POPC   CN2 5254   2.929   5.936   5.598
  102POPC   CN3 5255   2.911   5.933   5.839
  102POPC   NTM 5256   2.946   5.855   5.720
  102POPC    CA 5257   2.858   5.736   5.708
  102POPC    CB 5258   2.705   5.749   5.730
  102POPC    OA 5259   2.657   5.866   5.666
  102POPC     P 5260   2.521   5.845   5.589
  102POPC    OB 5261   2.521   5.981   5.538
  102POPC    OC 5262   2.444   5.815   5.711
  102POPC    OD 5263   2.579   5.731   5.494
  102POPC    CC 5264   2.610   5.755   5.356
  102POPC    CD 5265   2.732   5.844   5.319
  102POPC    OE 5266   2.690   5.952   5.232
  102POPC   C1A 5267   2.767   6.057   5.206
  102POPC    OF 5268   2.848   6.093   5.293
  102POPC   C1B 5269   2.710   6.136   5.094
  102POPC   C1C 5270   2.803   6.227   5.012
  102POPC   C1D 5271   2.880   6.161   4.897
  102POPC   C1E 5272   2.943   6.268   4.806
  102POPC   C1F 5273   3.015   6.208   4.685
  102POPC   C1G 5274   3.068   6.314   4.587
  102POPC   C1H 5275   3.127   6.251   4.460
  102POPC   C1I 5276   3.181   6.357   4.364
  102POPC   C1J 5277   3.160   6.355   4.233
  102POPC   C1K 5278   3.079   6.244   4.164
  102POPC   C1L 5279   3.087   6.248   4.011
  102POPC   C1M 5280   3.227   6.217   3.957
  102POPC   C1N 5281   3.235   6.197   3.805
  102POPC   C1O 5282   3.191   6.320   3.724
  102POPC   C1P 5283   3.236   6.313   3.578
  102POPC   C1Q 5284   3.174   6.198   3.498
  102POPC   C1R 5285   3.224   6.197   3.354
  102POPC    CE 5286   2.846   5.755   5.263
  102POPC    OG 5287   2.817   5.699   5.135
  102POPC   C2A 5288   2.830   5.780   5.031
  102POPC    OH 5289   2.920   5.864   5.026
  102POPC   C2B 5290   2.728   5.752   4.928
  102POPC   C2C 5291   2.747   5.793   4.783
  102POPC   C2D 5292   2.640   5.716   4.707
  102POPC   C2E 5293   2.670   5.717   4.558
  102POPC   C2F 5294   2.572   5.634   4.476
  102POPC   C2G 5295   2.597   5.676   4.331
  102POPC   C2H 5296   2.467   5.689   4.253
  102POPC   C2I 5297   2.486   5.757   4.118
  102POPC   C2J 5298   2.367   5.718   4.031
  102POPC   C2K 5299   2.359   5.783   3.894
  102POPC   C2L 5300   2.289   5.690   3.796
  102POPC   C2M 5301   2.235   5.774   3.680
  102POPC   C2N 5302   2.233   5.701   3.547
  102POPC   C2O 5303   2.172   5.793   3.441
  102POPC   C2P 5304   2.194   5.748   3.297
  103POPC   CN1 5305   4.697   5.419   5.632
  103POPC   CN2 5306   4.478   5.442   5.543
  103POPC   CN3 5307   4.529   5.535   5.755
  103POPC   NTM 5308   4.554   5.420   5.668
  103POPC    CA 5309   4.522   5.295   5.741
  103POPC    CB 5310   4.377   5.241   5.749
  103POPC    OA 5311   4.337   5.177   5.630
  103POPC     P 5312   4.178   5.166   5.624
  103POPC    OB 5313   4.135   5.297   5.674
  103POPC    OC 5314   4.161   5.053   5.716
  103POPC    OD 5315   4.144   5.140   5.474
  103POPC    CC 5316   4.242   5.094   5.379
  103POPC    CD 5317   4.320   5.196   5.294
  103POPC    OE 5318   4.231   5.264   5.205
  103POPC   C1A 5319   4.256   5.391   5.176
  103POPC    OF 5320   4.339   5.452   5.245
  103POPC   C1B 5321   4.150   5.444   5.087
  103POPC   C1C 5322   4.195   5.560   4.998
  103POPC   C1D 5323   4.278   5.515   4.878
  103POPC   C1E 5324   4.302   5.640   4.795
  103POPC   C1F 5325   4.346   5.607   4.653
  103POPC   C1G 5326   4.359   5.738   4.575
  103POPC   C1H 5327   4.382   5.707   4.427
  103POPC   C1I 5328   4.399   5.835   4.345
  103POPC   C1J 5329   4.357   5.832   4.220
  103POPC   C1K 5330   4.301   5.701   4.164
  103POPC   C1L 5331   4.278   5.702   4.012
  103POPC   C1M 5332   4.405   5.744   3.937
  103POPC   C1N 5333   4.433   5.671   3.807
  103POPC   C1O 5334   4.350   5.709   3.684
  103POPC   C1P 5335   4.443   5.696   3.564
  103POPC   C1Q 5336   4.371   5.680   3.430
  103POPC   C1R 5337   4.470   5.687   3.314
  103POPC    CE 5338   4.445   5.136   5.228
  103POPC    OG 5339   4.436   5.045   5.117
  103POPC   C2A 5340   4.475   5.091   4.997
  103POPC    OH 5341   4.532   5.200   4.989
  103POPC   C2B 5342   4.455   4.994   4.885
  103POPC   C2C 5343   4.456   5.039   4.738
  103POPC   C2D 5344   4.387   4.932   4.651
  103POPC   C2E 5345   4.349   4.976   4.508
  103POPC   C2F 5346   4.214   4.918   4.460
  103POPC   C2G 5347   4.189   4.929   4.308
  103POPC   C2H 5348   4.082   4.835   4.247
  103POPC   C2I 5349   4.080   4.832   4.092
  103POPC   C2J 5350   3.977   4.735   4.029
  103POPC   C2K 5351   3.979   4.741   3.875
  103POPC   C2L 5352   3.873   4.660   3.797
  103POPC   C2M 5353   3.741   4.733   3.765
  103POPC   C2N 5354   3.688   4.700   3.624
  103POPC   C2O 5355   3.571   4.789   3.581
  103POPC   C2P 5356   3.544   4.781   3.431
  104POPC   CN1 5357   4.216   1.492   5.700
  104POPC   CN2 5358   4.342   1.327   5.593
  104POPC   CN3 5359   4.332   1.326   5.830
  104POPC   NTM 5360   4.339   1.413   5.712
  104POPC    CA 5361   4.455   1.505   5.723
  104POPC    CB 5362   4.600   1.450   5.729
  104POPC    OA 5363   4.630   1.390   5.605
  104POPC     P 5364   4.743   1.280   5.609
  104POPC    OB 5365   4.657   1.186   5.685
  104POPC    OC 5366   4.848   1.359   5.674
  104POPC    OD 5367   4.753   1.258   5.452
  104POPC    CC 5368   4.728   1.363   5.357
  104POPC    CD 5369   4.583   1.363   5.303
  104POPC    OE 5370   4.555   1.255   5.213
  104POPC   C1A 5371   4.433   1.203   5.213
  104POPC    OF 5372   4.353   1.231   5.303
  104POPC   C1B 5373   4.422   1.094   5.115
  104POPC   C1C 5374   4.285   1.074   5.053
  104POPC   C1D 5375   4.280   1.129   4.911
  104POPC   C1E 5376   4.147   1.089   4.849
  104POPC   C1F 5377   4.145   1.112   4.699
  104POPC   C1G 5378   4.026   1.038   4.638
  104POPC   C1H 5379   4.034   1.040   4.485
  104POPC   C1I 5380   3.924   0.955   4.421
  104POPC   C1J 5381   3.938   0.915   4.295
  104POPC   C1K 5382   4.064   0.956   4.219
  104POPC   C1L 5383   4.066   0.917   4.070
  104POPC   C1M 5384   3.984   1.016   3.988
  104POPC   C1N 5385   4.002   1.009   3.836
  104POPC   C1O 5386   3.948   0.881   3.771
  104POPC   C1P 5387   3.902   0.908   3.627
  104POPC   C1Q 5388   4.012   0.965   3.537
  104POPC   C1R 5389   3.955   1.004   3.400
  104POPC    CE 5390   4.543   1.502   5.251
  104POPC    OG 5391   4.603   1.549   5.129
  104POPC   C2A 5392   4.542   1.515   5.015
  104POPC    OH 5393   4.423   1.481   5.015
  104POPC   C2B 5394   4.622   1.553   4.896
  104POPC   C2C 5395   4.602   1.462   4.775
  104POPC   C2D 5396   4.700   1.501   4.663
  104POPC   C2E 5397   4.678   1.418   4.536
  104POPC   C2F 5398   4.779   1.453   4.426
  104POPC   C2G 5399   4.747   1.376   4.297
  104POPC   C2H 5400   4.844   1.403   4.182
  104POPC   C2I 5401   4.803   1.318   4.061
  104POPC   C2J 5402   4.896   1.329   3.940
  104POPC   C2K 5403   4.862   1.217   3.841
  104POPC   C2L 5404   4.946   1.218   3.713
  104POPC   C2M 5405   4.949   1.078   3.652
  104POPC   C2N 5406   5.013   1.069   3.513
  104POPC   C2O 5407   5.042   0.924   3.473
  104POPC   C2P 5408   5.093   0.913   3.329
  105POPC   CN1 5409   3.734   0.337   5.735
  105POPC   CN2 5410   3.884   0.238   5.582
  105POPC   CN3 5411   3.859   0.139   5.795
  105POPC   NTM 5412   3.863   0.268   5.725
  105POPC    CA 5413   3.967   0.355   5.786
  105POPC    CB 5414   4.117   0.320   5.775
  105POPC    OA 5415   4.172   0.357   5.650
  105POPC     P 5416   4.281   0.251   5.601
  105POPC    OB 5417   4.191   0.135   5.594
  105POPC    OC 5418   4.372   0.271   5.716
  105POPC    OD 5419   4.328   0.330   5.473
  105POPC    CC 5420   4.250   0.421   5.392
  105POPC    CD 5421   4.115   0.384   5.330
  105POPC    OE 5422   4.127   0.312   5.206
  105POPC   C1A 5423   4.024   0.239   5.164
  105POPC    OF 5424   3.924   0.227   5.236
  105POPC   C1B 5425   4.061   0.163   5.042
  105POPC   C1C 5426   3.949   0.139   4.940
  105POPC   C1D 5427   3.902   0.265   4.868
  105POPC   C1E 5428   3.826   0.220   4.743
  105POPC   C1F 5429   3.759   0.331   4.661
  105POPC   C1G 5430   3.694   0.263   4.540
  105POPC   C1H 5431   3.616   0.352   4.443
  105POPC   C1I 5432   3.546   0.263   4.339
  105POPC   C1J 5433   3.580   0.259   4.210
  105POPC   C1K 5434   3.691   0.348   4.154
  105POPC   C1L 5435   3.675   0.380   4.004
  105POPC   C1M 5436   3.546   0.458   3.973
  105POPC   C1N 5437   3.541   0.517   3.831
  105POPC   C1O 5438   3.546   0.412   3.720
  105POPC   C1P 5439   3.516   0.471   3.582
  105POPC   C1Q 5440   3.618   0.575   3.536
  105POPC   C1R 5441   3.584   0.627   3.396
  105POPC    CE 5442   4.034   0.515   5.321
  105POPC    OG 5443   4.091   0.620   5.242
  105POPC   C2A 5444   4.040   0.630   5.119
  105POPC    OH 5445   3.922   0.598   5.100
  105POPC   C2B 5446   4.125   0.709   5.027
  105POPC   C2C 5447   4.118   0.658   4.883
  105POPC   C2D 5448   4.228   0.724   4.801
  105POPC   C2E 5449   4.219   0.694   4.651
  105POPC   C2F 5450   4.321   0.777   4.575
  105POPC   C2G 5451   4.314   0.750   4.424
  105POPC   C2H 5452   4.406   0.844   4.345
  105POPC   C2I 5453   4.410   0.799   4.199
  105POPC   C2J 5454   4.487   0.895   4.108
  105POPC   C2K 5455   4.493   0.834   3.968
  105POPC   C2L 5456   4.563   0.923   3.865
  105POPC   C2M 5457   4.590   0.837   3.742
  105POPC   C2N 5458   4.636   0.909   3.616
  105POPC   C2O 5459   4.698   0.805   3.522
  105POPC   C2P 5460   4.704   0.852   3.376
  106POPC   CN1 5461   0.966   1.571   5.792
  106POPC   CN2 5462   1.019   1.738   5.639
  106POPC   CN3 5463   1.075   1.760   5.875
  106POPC   NTM 5464   0.975   1.717   5.779
  106POPC    CA 5465   0.839   1.769   5.806
  106POPC    CB 5466   0.784   1.912   5.780
  106POPC    OA 5467   0.853   1.982   5.676
  106POPC     P 5468   0.779   2.101   5.602
  106POPC    OB 5469   0.879   2.186   5.540
  106POPC    OC 5470   0.712   2.163   5.718
  106POPC    OD 5471   0.679   2.028   5.509
  106POPC    CC 5472   0.720   1.910   5.435
  106POPC    CD 5473   0.824   1.853   5.337
  106POPC    OE 5474   0.891   1.943   5.248
  106POPC   C1A 5475   1.005   1.892   5.199
  106POPC    OF 5476   1.069   1.814   5.270
  106POPC   C1B 5477   1.051   1.954   5.073
  106POPC   C1C 5478   1.134   1.859   4.986
  106POPC   C1D 5479   1.054   1.764   4.897
  106POPC   C1E 5480   1.153   1.698   4.800
  106POPC   C1F 5481   1.088   1.619   4.686
  106POPC   C1G 5482   1.198   1.576   4.589
  106POPC   C1H 5483   1.144   1.508   4.463
  106POPC   C1I 5484   1.261   1.475   4.369
  106POPC   C1J 5485   1.250   1.491   4.238
  106POPC   C1K 5486   1.118   1.540   4.176
  106POPC   C1L 5487   1.108   1.515   4.025
  106POPC   C1M 5488   1.103   1.366   3.990
  106POPC   C1N 5489   1.070   1.338   3.843
  106POPC   C1O 5490   1.174   1.392   3.744
  106POPC   C1P 5491   1.155   1.335   3.604
  106POPC   C1Q 5492   1.026   1.382   3.536
  106POPC   C1R 5493   1.003   1.309   3.404
  106POPC    CE 5494   0.756   1.731   5.269
  106POPC    OG 5495   0.629   1.754   5.205
  106POPC   C2A 5496   0.620   1.712   5.079
  106POPC    OH 5497   0.721   1.674   5.020
  106POPC   C2B 5498   0.487   1.732   5.015
  106POPC   C2C 5499   0.493   1.719   4.862
  106POPC   C2D 5500   0.399   1.816   4.789
  106POPC   C2E 5501   0.417   1.803   4.637
  106POPC   C2F 5502   0.354   1.917   4.555
  106POPC   C2G 5503   0.390   1.899   4.407
  106POPC   C2H 5504   0.348   2.013   4.314
  106POPC   C2I 5505   0.415   1.997   4.177
  106POPC   C2J 5506   0.365   2.099   4.074
  106POPC   C2K 5507   0.444   2.091   3.942
  106POPC   C2L 5508   0.376   2.173   3.833
  106POPC   C2M 5509   0.455   2.169   3.702
  106POPC   C2N 5510   0.377   2.230   3.585
  106POPC   C2O 5511   0.456   2.220   3.454
  106POPC   C2P 5512   0.379   2.272   3.333
  107POPC   CN1 5513   0.432   2.358   5.721
  107POPC   CN2 5514   0.276   2.229   5.604
  107POPC   CN3 5515   0.249   2.261   5.844
  107POPC   NTM 5516   0.344   2.241   5.735
  107POPC    CA 5517   0.433   2.126   5.766
  107POPC    CB 5518   0.385   1.980   5.772
  107POPC    OA 5519   0.319   1.952   5.652
  107POPC     P 5520   0.282   1.803   5.623
  107POPC    OB 5521   0.143   1.818   5.666
  107POPC    OC 5522   0.364   1.723   5.713
  107POPC    OD 5523   0.291   1.809   5.466
  107POPC    CC 5524   0.398   1.878   5.397
  107POPC    CD 5525   0.361   2.003   5.316
  107POPC    OE 5526   0.263   1.966   5.220
  107POPC   C1A 5527   0.180   2.060   5.182
  107POPC    OF 5528   0.156   2.156   5.257
  107POPC   C1B 5529   0.106   2.007   5.067
  107POPC   C1C 5530   0.053   2.116   4.977
  107POPC   C1D 5531   0.163   2.176   4.891
  107POPC   C1E 5532   0.086   2.261   4.793
  107POPC   C1F 5533   0.162   2.272   4.662
  107POPC   C1G 5534   0.058   2.323   4.564
  107POPC   C1H 5535   0.114   2.329   4.423
  107POPC   C1I 5536   0.066   2.460   4.363
  107POPC   C1J 5537   0.057   2.465   4.232
  107POPC   C1K 5538   0.095   2.341   4.150
  107POPC   C1L 5539   0.078   2.367   4.001
  107POPC   C1M 5540   0.165   2.485   3.960
  107POPC   C1N 5541   0.125   2.567   3.838
  107POPC   C1O 5542   0.137   2.486   3.710
  107POPC   C1P 5543   0.139   2.583   3.592
  107POPC   C1Q 5544   0.138   2.506   3.461
  107POPC   C1R 5545   0.131   2.600   3.341
  107POPC    CE 5546   0.477   2.085   5.254
  107POPC    OG 5547   0.563   2.028   5.154
  107POPC   C2A 5548   0.591   2.101   5.045
  107POPC    OH 5549   0.528   2.205   5.025
  107POPC   C2B 5550   0.691   2.038   4.954
  107POPC   C2C 5551   0.677   2.063   4.803
  107POPC   C2D 5552   0.753   1.955   4.723
  107POPC   C2E 5553   0.733   1.963   4.571
  107POPC   C2F 5554   0.765   1.830   4.498
  107POPC   C2G 5555   0.729   1.836   4.349
  107POPC   C2H 5556   0.739   1.703   4.273
  107POPC   C2I 5557   0.667   1.708   4.137
  107POPC   C2J 5558   0.708   1.595   4.042
  107POPC   C2K 5559   0.640   1.605   3.905
  107POPC   C2L 5560   0.702   1.507   3.804
  107POPC   C2M 5561   0.618   1.499   3.676
  107POPC   C2N 5562   0.669   1.396   3.574
  107POPC   C2O 5563   0.555   1.331   3.496
  107POPC   C2P 5564   0.594   1.289   3.354
  108POPC   CN1 5565   3.967   5.581   5.694
  108POPC   CN2 5566   3.765   5.567   5.582
  108POPC   CN3 5567   3.759   5.584   5.817
  108POPC   NTM 5568   3.833   5.524   5.705
  108POPC    CA 5569   3.844   5.376   5.717
  108POPC    CB 5570   3.717   5.291   5.737
  108POPC    OA 5571   3.635   5.309   5.625
  108POPC     P 5572   3.489   5.257   5.636
  108POPC    OB 5573   3.425   5.364   5.714
  108POPC    OC 5574   3.503   5.127   5.703
  108POPC    OD 5575   3.441   5.242   5.487
  108POPC    CC 5576   3.533   5.206   5.382
  108POPC    CD 5577   3.622   5.319   5.323
  108POPC    OE 5578   3.553   5.413   5.238
  108POPC   C1A 5579   3.606   5.534   5.226
  108POPC    OF 5580   3.697   5.569   5.301
  108POPC   C1B 5581   3.525   5.625   5.142
  108POPC   C1C 5582   3.604   5.725   5.058
  108POPC   C1D 5583   3.648   5.670   4.923
  108POPC   C1E 5584   3.639   5.783   4.820
  108POPC   C1F 5585   3.704   5.741   4.688
  108POPC   C1G 5586   3.681   5.846   4.580
  108POPC   C1H 5587   3.737   5.798   4.446
  108POPC   C1I 5588   3.741   5.915   4.349
  108POPC   C1J 5589   3.674   5.925   4.234
  108POPC   C1K 5590   3.586   5.818   4.171
  108POPC   C1L 5591   3.576   5.835   4.019
  108POPC   C1M 5592   3.711   5.821   3.949
  108POPC   C1N 5593   3.705   5.821   3.796
  108POPC   C1O 5594   3.647   5.948   3.732
  108POPC   C1P 5595   3.687   5.961   3.584
  108POPC   C1Q 5596   3.646   5.841   3.498
  108POPC   C1R 5597   3.699   5.854   3.356
  108POPC    CE 5598   3.751   5.257   5.266
  108POPC    OG 5599   3.732   5.168   5.156
  108POPC   C2A 5600   3.737   5.222   5.035
  108POPC    OH 5601   3.798   5.327   5.013
  108POPC   C2B 5602   3.684   5.127   4.935
  108POPC   C2C 5603   3.627   5.187   4.807
  108POPC   C2D 5604   3.534   5.084   4.741
  108POPC   C2E 5605   3.511   5.117   4.594
  108POPC   C2F 5606   3.436   5.014   4.510
  108POPC   C2G 5607   3.415   5.072   4.370
  108POPC   C2H 5608   3.369   4.971   4.266
  108POPC   C2I 5609   3.344   5.040   4.131
  108POPC   C2J 5610   3.303   4.940   4.023
  108POPC   C2K 5611   3.252   5.012   3.898
  108POPC   C2L 5612   3.195   4.917   3.793
  108POPC   C2M 5613   3.082   4.987   3.717
  108POPC   C2N 5614   3.037   4.912   3.592
  108POPC   C2O 5615   2.914   4.981   3.532
  108POPC   C2P 5616   2.879   4.925   3.394
  109POPC   CN1 5617   1.782   3.197   5.845
  109POPC   CN2 5618   1.898   3.198   5.639
  109POPC   CN3 5619   2.018   3.186   5.853
  109POPC   NTM 5620   1.904   3.243   5.780
  109POPC    CA 5621   1.910   3.392   5.778
  109POPC    CB 5622   2.048   3.459   5.753
  109POPC    OA 5623   2.116   3.377   5.658
  109POPC     P 5624   2.254   3.427   5.601
  109POPC    OB 5625   2.310   3.296   5.573
  109POPC    OC 5626   2.303   3.507   5.715
  109POPC    OD 5627   2.201   3.485   5.463
  109POPC    CC 5628   2.073   3.543   5.433
  109POPC    CD 5629   1.980   3.457   5.346
  109POPC    OE 5630   2.045   3.424   5.222
  109POPC   C1A 5631   2.029   3.307   5.165
  109POPC    OF 5632   1.983   3.211   5.229
  109POPC   C1B 5633   2.102   3.310   5.036
  109POPC   C1C 5634   2.039   3.227   4.925
  109POPC   C1D 5635   1.908   3.277   4.864
  109POPC   C1E 5636   1.870   3.172   4.760
  109POPC   C1F 5637   1.761   3.215   4.662
  109POPC   C1G 5638   1.748   3.106   4.555
  109POPC   C1H 5639   1.661   3.149   4.438
  109POPC   C1I 5640   1.656   3.038   4.332
  109POPC   C1J 5641   1.674   3.065   4.203
  109POPC   C1K 5642   1.699   3.208   4.154
  109POPC   C1L 5643   1.665   3.229   4.006
  109POPC   C1M 5644   1.516   3.212   3.975
  109POPC   C1N 5645   1.475   3.255   3.834
  109POPC   C1O 5646   1.542   3.176   3.721
  109POPC   C1P 5647   1.480   3.206   3.584
  109POPC   C1Q 5648   1.499   3.351   3.539
  109POPC   C1R 5649   1.427   3.378   3.407
  109POPC    CE 5650   1.850   3.539   5.324
  109POPC    OG 5651   1.867   3.650   5.234
  109POPC   C2A 5652   1.853   3.621   5.105
  109POPC    OH 5653   1.777   3.530   5.069
  109POPC   C2B 5654   1.912   3.723   5.015
  109POPC   C2C 5655   1.878   3.697   4.868
  109POPC   C2D 5656   1.898   3.822   4.783
  109POPC   C2E 5657   1.882   3.791   4.635
  109POPC   C2F 5658   1.890   3.918   4.549
  109POPC   C2G 5659   1.917   3.882   4.403
  109POPC   C2H 5660   1.933   4.005   4.313
  109POPC   C2I 5661   1.971   3.959   4.172
  109POPC   C2J 5662   1.992   4.077   4.077
  109POPC   C2K 5663   2.031   4.030   3.937
  109POPC   C2L 5664   2.069   4.147   3.846
  109POPC   C2M 5665   2.110   4.096   3.707
  109POPC   C2N 5666   2.178   4.204   3.622
  109POPC   C2O 5667   2.222   4.146   3.488
  109POPC   C2P 5668   2.312   4.242   3.410
  110POPC   CN1 5669   0.139   5.475   5.577
  110POPC   CN2 5670   0.323   5.338   5.548
  110POPC   CN3 5671   0.236   5.337   5.765
  110POPC   NTM 5672   0.256   5.424   5.649
  110POPC    CA 5673   0.322   5.547   5.698
  110POPC    CB 5674   0.473   5.549   5.721
  110POPC    OA 5675   0.527   5.526   5.594
  110POPC     P 5676   0.679   5.496   5.599
  110POPC    OB 5677   0.670   5.376   5.686
  110POPC    OC 5678   0.720   5.625   5.654
  110POPC    OD 5679   0.709   5.468   5.449
  110POPC    CC 5680   0.655   5.556   5.349
  110POPC    CD 5681   0.530   5.495   5.284
  110POPC    OE 5682   0.562   5.398   5.182
  110POPC   C1A 5683   0.487   5.290   5.172
  110POPC    OF 5684   0.396   5.269   5.255
  110POPC   C1B 5685   0.539   5.201   5.067
  110POPC   C1C 5686   0.429   5.133   4.986
  110POPC   C1D 5687   0.411   5.193   4.847
  110POPC   C1E 5688   0.345   5.087   4.760
  110POPC   C1F 5689   0.316   5.135   4.618
  110POPC   C1G 5690   0.265   5.018   4.535
  110POPC   C1H 5691   0.233   5.060   4.392
  110POPC   C1I 5692   0.192   4.939   4.308
  110POPC   C1J 5693   0.239   4.925   4.184
  110POPC   C1K 5694   0.334   5.031   4.126
  110POPC   C1L 5695   0.338   5.034   3.973
  110POPC   C1M 5696   0.203   5.070   3.910
  110POPC   C1N 5697   0.210   5.097   3.760
  110POPC   C1O 5698   0.258   4.976   3.678
  110POPC   C1P 5699   0.233   4.994   3.528
  110POPC   C1Q 5700   0.320   5.103   3.464
  110POPC   C1R 5701   0.287   5.115   3.315
  110POPC    CE 5702   0.431   5.604   5.241
  110POPC    OG 5703   0.470   5.691   5.134
  110POPC   C2A 5704   0.442   5.646   5.011
  110POPC    OH 5705   0.348   5.568   4.994
  110POPC   C2B 5706   0.505   5.731   4.908
  110POPC   C2C 5707   0.538   5.656   4.779
  110POPC   C2D 5708   0.619   5.748   4.687
  110POPC   C2E 5709   0.638   5.684   4.550
  110POPC   C2F 5710   0.734   5.764   4.462
  110POPC   C2G 5711   0.754   5.690   4.330
  110POPC   C2H 5712   0.856   5.760   4.240
  110POPC   C2I 5713   0.885   5.670   4.120
  110POPC   C2J 5714   0.984   5.737   4.024
  110POPC   C2K 5715   1.022   5.641   3.911
  110POPC   C2L 5716   1.110   5.713   3.810
  110POPC   C2M 5717   1.158   5.617   3.703
  110POPC   C2N 5718   1.233   5.687   3.590
  110POPC   C2O 5719   1.291   5.583   3.495
  110POPC   C2P 5720   1.288   5.630   3.349
  111POPC   CN1 5721   5.733   0.447   5.631
  111POPC   CN2 5722   5.575   0.583   5.524
  111POPC   CN3 5723   5.610   0.607   5.759
  111POPC   NTM 5724   5.602   0.510   5.650
  111POPC    CA 5725   5.502   0.404   5.679
  111POPC    CB 5726   5.356   0.442   5.710
  111POPC    OA 5727   5.300   0.506   5.597
  111POPC     P 5728   5.157   0.569   5.620
  111POPC    OB 5729   5.217   0.683   5.693
  111POPC    OC 5730   5.095   0.453   5.688
  111POPC    OD 5731   5.128   0.590   5.466
  111POPC    CC 5732   5.154   0.488   5.369
  111POPC    CD 5733   5.275   0.524   5.280
  111POPC    OE 5734   5.241   0.609   5.168
  111POPC   C1A 5735   5.329   0.702   5.131
  111POPC    OF 5736   5.439   0.706   5.187
  111POPC   C1B 5737   5.279   0.785   5.019
  111POPC   C1C 5738   5.388   0.860   4.942
  111POPC   C1D 5739   5.345   0.885   4.797
  111POPC   C1E 5740   5.447   0.960   4.710
  111POPC   C1F 5741   5.539   0.868   4.631
  111POPC   C1G 5742   5.594   0.929   4.502
  111POPC   C1H 5743   5.662   0.825   4.413
  111POPC   C1I 5744   5.748   0.892   4.305
  111POPC   C1J 5745   5.713   0.917   4.179
  111POPC   C1K 5746   5.581   0.879   4.110
  111POPC   C1L 5747   5.596   0.878   3.957
  111POPC   C1M 5748   5.706   0.784   3.906
  111POPC   C1N 5749   5.704   0.755   3.756
  111POPC   C1O 5750   5.730   0.877   3.666
  111POPC   C1P 5751   5.756   0.840   3.519
  111POPC   C1Q 5752   5.650   0.748   3.458
  111POPC   C1R 5753   5.656   0.746   3.306
  111POPC    CE 5754   5.348   0.394   5.241
  111POPC    OG 5755   5.282   0.307   5.148
  111POPC   C2A 5756   5.322   0.321   5.022
  111POPC    OH 5757   5.437   0.356   4.998
  111POPC   C2B 5758   5.230   0.258   4.924
  111POPC   C2C 5759   5.212   0.346   4.800
  111POPC   C2D 5760   5.114   0.286   4.698
  111POPC   C2E 5761   5.105   0.373   4.572
  111POPC   C2F 5762   5.012   0.319   4.464
  111POPC   C2G 5763   5.033   0.392   4.331
  111POPC   C2H 5764   4.905   0.393   4.246
  111POPC   C2I 5765   4.922   0.446   4.104
  111POPC   C2J 5766   4.784   0.455   4.036
  111POPC   C2K 5767   4.787   0.479   3.885
  111POPC   C2L 5768   4.645   0.467   3.828
  111POPC   C2M 5769   4.640   0.479   3.675
  111POPC   C2N 5770   4.502   0.446   3.617
  111POPC   C2O 5771   4.431   0.563   3.550
  111POPC   C2P 5772   4.404   0.538   3.401
  112POPC   CN1 5773   3.045   1.061   5.663
  112POPC   CN2 5774   2.820   1.106   5.634
  112POPC   CN3 5775   2.910   1.173   5.837
  112POPC   NTM 5776   2.919   1.068   5.737
  112POPC    CA 5777   2.908   0.938   5.808
  112POPC    CB 5778   2.794   0.839   5.779
  112POPC    OA 5779   2.791   0.814   5.640
  112POPC     P 5780   2.646   0.767   5.597
  112POPC    OB 5781   2.569   0.879   5.655
  112POPC    OC 5782   2.650   0.636   5.663
  112POPC    OD 5783   2.662   0.771   5.441
  112POPC    CC 5784   2.790   0.770   5.376
  112POPC    CD 5785   2.833   0.908   5.321
  112POPC    OE 5786   2.747   0.947   5.212
  112POPC   C1A 5787   2.731   1.076   5.183
  112POPC    OF 5788   2.762   1.160   5.268
  112POPC   C1B 5789   2.636   1.082   5.070
  112POPC   C1C 5790   2.640   1.200   4.973
  112POPC   C1D 5791   2.768   1.224   4.893
  112POPC   C1E 5792   2.730   1.322   4.783
  112POPC   C1F 5793   2.845   1.408   4.731
  112POPC   C1G 5794   2.792   1.501   4.621
  112POPC   C1H 5795   2.891   1.518   4.505
  112POPC   C1I 5796   2.843   1.632   4.416
  112POPC   C1J 5797   2.811   1.622   4.287
  112POPC   C1K 5798   2.815   1.490   4.210
  112POPC   C1L 5799   2.817   1.514   4.059
  112POPC   C1M 5800   2.958   1.529   4.002
  112POPC   C1N 5801   2.963   1.498   3.852
  112POPC   C1O 5802   2.888   1.599   3.765
  112POPC   C1P 5803   2.872   1.551   3.620
  112POPC   C1Q 5804   3.004   1.511   3.554
  112POPC   C1R 5805   2.990   1.481   3.405
  112POPC    CE 5806   2.983   0.905   5.286
  112POPC    OG 5807   3.023   0.809   5.187
  112POPC   C2A 5808   3.013   0.851   5.060
  112POPC    OH 5809   2.993   0.969   5.033
  112POPC   C2B 5810   3.043   0.746   4.961
  112POPC   C2C 5811   2.965   0.769   4.831
  112POPC   C2D 5812   3.004   0.672   4.720
  112POPC   C2E 5813   2.934   0.715   4.590
  112POPC   C2F 5814   2.962   0.621   4.473
  112POPC   C2G 5815   2.896   0.679   4.347
  112POPC   C2H 5816   2.897   0.583   4.228
  112POPC   C2I 5817   2.826   0.648   4.109
  112POPC   C2J 5818   2.806   0.551   3.994
  112POPC   C2K 5819   2.722   0.615   3.883
  112POPC   C2L 5820   2.694   0.517   3.769
  112POPC   C2M 5821   2.601   0.580   3.665
  112POPC   C2N 5822   2.575   0.484   3.549
  112POPC   C2O 5823   2.479   0.547   3.447
  112POPC   C2P 5824   2.456   0.453   3.329
  113POPC   CN1 5825   3.373   2.851   5.774
  113POPC   CN2 5826   3.262   2.946   5.591
  113POPC   CN3 5827   3.271   3.068   5.795
  113POPC   NTM 5828   3.258   2.934   5.739
  113POPC    CA 5829   3.137   2.862   5.788
  113POPC    CB 5830   3.000   2.931   5.783
  113POPC    OA 5831   2.969   2.959   5.650
  113POPC     P 5832   2.878   3.083   5.618
  113POPC    OB 5833   2.992   3.175   5.610
  113POPC    OC 5834   2.796   3.087   5.741
  113POPC    OD 5835   2.817   3.035   5.481
  113POPC    CC 5836   2.844   2.909   5.417
  113POPC    CD 5837   2.984   2.880   5.356
  113POPC    OE 5838   3.003   2.946   5.230
  113POPC   C1A 5839   3.123   2.976   5.186
  113POPC    OF 5840   3.220   2.982   5.264
  113POPC   C1B 5841   3.108   3.009   5.044
  113POPC   C1C 5842   3.223   2.993   4.947
  113POPC   C1D 5843   3.177   2.914   4.825
  113POPC   C1E 5844   3.266   2.947   4.708
  113POPC   C1F 5845   3.327   2.823   4.644
  113POPC   C1G 5846   3.397   2.873   4.519
  113POPC   C1H 5847   3.458   2.762   4.435
  113POPC   C1I 5848   3.528   2.826   4.317
  113POPC   C1J 5849   3.484   2.833   4.191
  113POPC   C1K 5850   3.355   2.773   4.138
  113POPC   C1L 5851   3.370   2.704   4.002
  113POPC   C1M 5852   3.467   2.584   4.002
  113POPC   C1N 5853   3.453   2.487   3.884
  113POPC   C1O 5854   3.419   2.552   3.749
  113POPC   C1P 5855   3.448   2.461   3.630
  113POPC   C1Q 5856   3.375   2.513   3.506
  113POPC   C1R 5857   3.410   2.433   3.381
  113POPC    CE 5858   2.998   2.727   5.339
  113POPC    OG 5859   2.917   2.671   5.234
  113POPC   C2A 5860   2.973   2.675   5.113
  113POPC    OH 5861   3.092   2.645   5.100
  113POPC   C2B 5862   2.874   2.688   5.004
  113POPC   C2C 5863   2.923   2.674   4.859
  113POPC   C2D 5864   2.805   2.695   4.764
  113POPC   C2E 5865   2.831   2.671   4.615
  113POPC   C2F 5866   2.696   2.674   4.542
  113POPC   C2G 5867   2.698   2.641   4.392
  113POPC   C2H 5868   2.556   2.641   4.332
  113POPC   C2I 5869   2.563   2.634   4.178
  113POPC   C2J 5870   2.432   2.617   4.099
  113POPC   C2K 5871   2.467   2.627   3.950
  113POPC   C2L 5872   2.349   2.627   3.852
  113POPC   C2M 5873   2.399   2.671   3.713
  113POPC   C2N 5874   2.286   2.682   3.610
  113POPC   C2O 5875   2.338   2.745   3.481
  113POPC   C2P 5876   2.232   2.744   3.370
  114POPC   CN1 5877   5.625   5.692   5.703
  114POPC   CN2 5878   5.454   5.821   5.607
  114POPC   CN3 5879   5.503   5.849   5.841
  114POPC   NTM 5880   5.495   5.753   5.731
  114POPC    CA 5881   5.399   5.650   5.774
  114POPC    CB 5882   5.251   5.692   5.782
  114POPC    OA 5883   5.190   5.665   5.658
  114POPC     P 5884   5.060   5.753   5.639
  114POPC    OB 5885   5.114   5.887   5.669
  114POPC    OC 5886   4.979   5.683   5.740
  114POPC    OD 5887   5.022   5.716   5.492
  114POPC    CC 5888   5.115   5.667   5.393
  114POPC    CD 5889   5.230   5.749   5.331
  114POPC    OE 5890   5.194   5.877   5.271
  114POPC   C1A 5891   5.281   5.946   5.196
  114POPC    OF 5892   5.400   5.924   5.221
  114POPC   C1B 5893   5.227   6.067   5.128
  114POPC   C1C 5894   5.328   6.161   5.060
  114POPC   C1D 5895   5.375   6.112   4.922
  114POPC   C1E 5896   5.464   6.213   4.849
  114POPC   C1F 5897   5.507   6.159   4.712
  114POPC   C1G 5898   5.598   6.255   4.634
  114POPC   C1H 5899   5.638   6.196   4.497
  114POPC   C1I 5900   5.740   6.288   4.428
  114POPC   C1J 5901   5.728   6.325   4.300
  114POPC   C1K 5902   5.611   6.280   4.213
  114POPC   C1L 5903   5.633   6.313   4.065
  114POPC   C1M 5904   5.725   6.213   3.995
  114POPC   C1N 5905   5.723   6.214   3.841
  114POPC   C1O 5906   5.730   6.352   3.775
  114POPC   C1P 5907   5.771   6.348   3.627
  114POPC   C1Q 5908   5.688   6.252   3.542
  114POPC   C1R 5909   5.718   6.263   3.392
  114POPC    CE 5910   5.306   5.643   5.248
  114POPC    OG 5911   5.232   5.577   5.145
  114POPC   C2A 5912   5.273   5.607   5.022
  114POPC    OH 5913   5.362   5.690   5.006
  114POPC   C2B 5914   5.204   5.543   4.908
  114POPC   C2C 5915   5.184   5.651   4.801
  114POPC   C2D 5916   5.142   5.598   4.665
  114POPC   C2E 5917   5.091   5.716   4.582
  114POPC   C2F 5918   5.041   5.670   4.446
  114POPC   C2G 5919   4.968   5.783   4.374
  114POPC   C2H 5920   4.913   5.735   4.240
  114POPC   C2I 5921   4.835   5.846   4.170
  114POPC   C2J 5922   4.790   5.805   4.030
  114POPC   C2K 5923   4.729   5.926   3.959
  114POPC   C2L 5924   4.709   5.901   3.810
  114POPC   C2M 5925   4.630   6.016   3.747
  114POPC   C2N 5926   4.619   6.001   3.595
  114POPC   C2O 5927   4.506   6.087   3.540
  114POPC   C2P 5928   4.496   6.075   3.388
  115POPC   CN1 5929   4.125   3.862   5.710
  115POPC   CN2 5930   4.313   3.873   5.571
  115POPC   CN3 5931   4.348   3.797   5.791
  115POPC   NTM 5932   4.268   3.891   5.711
  115POPC    CA 5933   4.281   4.030   5.764
  115POPC    CB 5934   4.420   4.096   5.771
  115POPC    OA 5935   4.466   4.108   5.639
  115POPC     P 5936   4.619   4.131   5.631
  115POPC    OB 5937   4.656   4.002   5.688
  115POPC    OC 5938   4.657   4.248   5.714
  115POPC    OD 5939   4.650   4.154   5.480
  115POPC    CC 5940   4.548   4.209   5.394
  115POPC    CD 5941   4.445   4.115   5.330
  115POPC    OE 5942   4.496   4.054   5.211
  115POPC   C1A 5943   4.432   3.950   5.162
  115POPC    OF 5944   4.365   3.878   5.238
  115POPC   C1B 5945   4.474   3.931   5.022
  115POPC   C1C 5946   4.444   3.796   4.961
  115POPC   C1D 5947   4.323   3.816   4.870
  115POPC   C1E 5948   4.366   3.839   4.726
  115POPC   C1F 5949   4.242   3.868   4.643
  115POPC   C1G 5950   4.280   3.876   4.496
  115POPC   C1H 5951   4.157   3.907   4.411
  115POPC   C1I 5952   4.126   3.790   4.320
  115POPC   C1J 5953   4.160   3.784   4.192
  115POPC   C1K 5954   4.223   3.899   4.113
  115POPC   C1L 5955   4.194   3.887   3.963
  115POPC   C1M 5956   4.045   3.859   3.935
  115POPC   C1N 5957   3.995   3.893   3.795
  115POPC   C1O 5958   4.063   3.815   3.683
  115POPC   C1P 5959   3.976   3.811   3.557
  115POPC   C1Q 5960   3.940   3.949   3.503
  115POPC   C1R 5961   3.872   3.938   3.367
  115POPC    CE 5962   4.313   4.192   5.306
  115POPC    OG 5963   4.320   4.301   5.213
  115POPC   C2A 5964   4.281   4.276   5.088
  115POPC    OH 5965   4.232   4.167   5.057
  115POPC   C2B 5966   4.293   4.393   4.997
  115POPC   C2C 5967   4.282   4.360   4.848
  115POPC   C2D 5968   4.251   4.485   4.764
  115POPC   C2E 5969   4.243   4.452   4.614
  115POPC   C2F 5970   4.255   4.578   4.527
  115POPC   C2G 5971   4.274   4.553   4.376
  115POPC   C2H 5972   4.380   4.647   4.315
  115POPC   C2I 5973   4.391   4.644   4.162
  115POPC   C2J 5974   4.495   4.739   4.102
  115POPC   C2K 5975   4.510   4.706   3.953
  115POPC   C2L 5976   4.599   4.802   3.873
  115POPC   C2M 5977   4.608   4.751   3.728
  115POPC   C2N 5978   4.685   4.846   3.636
  115POPC   C2O 5979   4.691   4.788   3.494
  115POPC   C2P 5980   4.761   4.882   3.397
  116POPC   CN1 5981   1.493   4.194   5.799
  116POPC   CN2 5982   1.547   4.095   5.593
  116POPC   CN3 5983   1.534   3.959   5.785
  116POPC   NTM 5984   1.577   4.092   5.738
  116POPC    CA 5985   1.720   4.125   5.761
  116POPC    CB 5986   1.828   4.015   5.749
  116POPC    OA 5987   1.788   3.939   5.638
  116POPC     P 5988   1.847   3.799   5.607
  116POPC    OB 5989   1.730   3.729   5.557
  116POPC    OC 5990   1.895   3.756   5.741
  116POPC    OD 5991   1.945   3.835   5.488
  116POPC    CC 5992   1.938   3.952   5.403
  116POPC    CD 5993   1.810   4.013   5.340
  116POPC    OE 5994   1.760   3.948   5.221
  116POPC   C1A 5995   1.636   3.972   5.181
  116POPC    OF 5996   1.559   4.039   5.251
  116POPC   C1B 5997   1.602   3.889   5.063
  116POPC   C1C 5998   1.510   3.946   4.956
  116POPC   C1D 5999   1.564   4.057   4.866
  116POPC   C1E 6000   1.460   4.075   4.755
  116POPC   C1F 6001   1.494   4.186   4.655
  116POPC   C1G 6002   1.386   4.187   4.548
  116POPC   C1H 6003   1.409   4.293   4.440
  116POPC   C1I 6004   1.300   4.279   4.334
  116POPC   C1J 6005   1.333   4.259   4.207
  116POPC   C1K 6006   1.481   4.260   4.163
  116POPC   C1L 6007   1.501   4.286   4.013
  116POPC   C1M 6008   1.414   4.400   3.959
  116POPC   C1N 6009   1.456   4.457   3.824
  116POPC   C1O 6010   1.472   4.356   3.711
  116POPC   C1P 6011   1.494   4.436   3.583
  116POPC   C1Q 6012   1.556   4.357   3.469
  116POPC   C1R 6013   1.571   4.447   3.347
  116POPC    CE 6014   1.844   4.163   5.320
  116POPC    OG 6015   1.952   4.185   5.229
  116POPC   C2A 6016   1.915   4.192   5.102
  116POPC    OH 6017   1.813   4.252   5.069
  116POPC   C2B 6018   2.020   4.142   5.010
  116POPC   C2C 6019   1.996   4.172   4.862
  116POPC   C2D 6020   2.119   4.130   4.782
  116POPC   C2E 6021   2.122   4.178   4.637
  116POPC   C2F 6022   2.255   4.146   4.567
  116POPC   C2G 6023   2.248   4.188   4.421
  116POPC   C2H 6024   2.373   4.150   4.341
  116POPC   C2I 6025   2.344   4.162   4.191
  116POPC   C2J 6026   2.465   4.132   4.102
  116POPC   C2K 6027   2.425   4.117   3.956
  116POPC   C2L 6028   2.542   4.086   3.862
  116POPC   C2M 6029   2.492   4.032   3.729
  116POPC   C2N 6030   2.601   3.994   3.629
  116POPC   C2O 6031   2.542   3.906   3.519
  116POPC   C2P 6032   2.571   3.955   3.377
  117POPC   CN1 6033   4.935   4.409   5.613
  117POPC   CN2 6034   5.092   4.574   5.587
  117POPC   CN3 6035   5.069   4.491   5.806
  117POPC   NTM 6036   4.995   4.523   5.684
  117POPC    CA 6037   4.881   4.607   5.724
  117POPC    CB 6038   4.896   4.759   5.726
  117POPC    OA 6039   4.905   4.810   5.595
  117POPC     P 6040   4.997   4.937   5.596
  117POPC    OB 6041   5.100   4.901   5.695
  117POPC    OC 6042   4.898   5.037   5.640
  117POPC    OD 6043   5.057   4.962   5.455
  117POPC    CC 6044   4.997   4.901   5.340
  117POPC    CD 6045   5.053   4.763   5.295
  117POPC    OE 6046   5.175   4.766   5.217
  117POPC   C1A 6047   5.273   4.677   5.239
  117POPC    OF 6048   5.271   4.620   5.350
  117POPC   C1B 6049   5.392   4.707   5.153
  117POPC   C1C 6050   5.493   4.612   5.086
  117POPC   C1D 6051   5.460   4.584   4.939
  117POPC   C1E 6052   5.572   4.524   4.851
  117POPC   C1F 6053   5.515   4.415   4.758
  117POPC   C1G 6054   5.579   4.399   4.619
  117POPC   C1H 6055   5.484   4.326   4.523
  117POPC   C1I 6056   5.559   4.231   4.431
  117POPC   C1J 6057   5.592   4.242   4.302
  117POPC   C1K 6058   5.552   4.357   4.210
  117POPC   C1L 6059   5.572   4.320   4.063
  117POPC   C1M 6060   5.484   4.204   4.013
  117POPC   C1N 6061   5.476   4.192   3.860
  117POPC   C1O 6062   5.612   4.198   3.790
  117POPC   C1P 6063   5.607   4.151   3.644
  117POPC   C1Q 6064   5.503   4.224   3.559
  117POPC   C1R 6065   5.511   4.184   3.412
  117POPC    CE 6066   4.937   4.695   5.222
  117POPC    OG 6067   4.874   4.779   5.125
  117POPC   C2A 6068   4.889   4.738   5.000
  117POPC    OH 6069   4.910   4.619   4.978
  117POPC   C2B 6070   4.844   4.836   4.898
  117POPC   C2C 6071   4.903   4.805   4.761
  117POPC   C2D 6072   4.830   4.877   4.649
  117POPC   C2E 6073   4.911   4.859   4.521
  117POPC   C2F 6074   4.844   4.914   4.395
  117POPC   C2G 6075   4.947   4.911   4.283
  117POPC   C2H 6076   4.895   4.961   4.148
  117POPC   C2I 6077   5.015   4.990   4.058
  117POPC   C2J 6078   4.979   5.062   3.928
  117POPC   C2K 6079   5.106   5.128   3.875
  117POPC   C2L 6080   5.093   5.200   3.740
  117POPC   C2M 6081   5.224   5.274   3.708
  117POPC   C2N 6082   5.229   5.319   3.561
  117POPC   C2O 6083   5.368   5.364   3.517
  117POPC   C2P 6084   5.370   5.386   3.365
  118POPC   CN1 6085   1.959   2.596   5.630
  118POPC   CN2 6086   2.167   2.638   5.532
  118POPC   CN3 6087   2.141   2.668   5.774
  118POPC   NTM 6088   2.078   2.681   5.642
  118POPC    CA 6089   2.038   2.821   5.615
  118POPC    CB 6090   2.139   2.933   5.649
  118POPC    OA 6091   2.271   2.889   5.622
  118POPC     P 6092   2.392   2.991   5.637
  118POPC    OB 6093   2.471   2.875   5.686
  118POPC    OC 6094   2.327   3.073   5.742
  118POPC    OD 6095   2.406   3.012   5.480
  118POPC    CC 6096   2.310   3.044   5.376
  118POPC    CD 6097   2.278   2.920   5.288
  118POPC    OE 6098   2.390   2.881   5.207
  118POPC   C1A 6099   2.422   2.754   5.198
  118POPC    OF 6100   2.383   2.670   5.283
  118POPC   C1B 6101   2.525   2.737   5.094
  118POPC   C1C 6102   2.509   2.606   5.017
  118POPC   C1D 6103   2.452   2.614   4.876
  118POPC   C1E 6104   2.459   2.471   4.822
  118POPC   C1F 6105   2.460   2.457   4.670
  118POPC   C1G 6106   2.494   2.315   4.622
  118POPC   C1H 6107   2.531   2.316   4.473
  118POPC   C1I 6108   2.554   2.181   4.403
  118POPC   C1J 6109   2.600   2.178   4.277
  118POPC   C1K 6110   2.634   2.311   4.207
  118POPC   C1L 6111   2.702   2.323   4.069
  118POPC   C1M 6112   2.610   2.289   3.953
  118POPC   C1N 6113   2.633   2.340   3.810
  118POPC   C1O 6114   2.746   2.272   3.733
  118POPC   C1P 6115   2.710   2.234   3.589
  118POPC   C1Q 6116   2.652   2.348   3.505
  118POPC   C1R 6117   2.621   2.302   3.363
  118POPC    CE 6118   2.146   2.935   5.209
  118POPC    OG 6119   2.142   2.957   5.066
  118POPC   C2A 6120   2.161   2.859   4.978
  118POPC    OH 6121   2.161   2.742   5.017
  118POPC   C2B 6122   2.141   2.901   4.836
  118POPC   C2C 6123   2.261   2.948   4.752
  118POPC   C2D 6124   2.211   3.021   4.625
  118POPC   C2E 6125   2.312   3.051   4.513
  118POPC   C2F 6126   2.247   3.129   4.396
  118POPC   C2G 6127   2.330   3.157   4.268
  118POPC   C2H 6128   2.430   3.275   4.270
  118POPC   C2I 6129   2.535   3.302   4.159
  118POPC   C2J 6130   2.504   3.328   4.010
  118POPC   C2K 6131   2.633   3.311   3.928
  118POPC   C2L 6132   2.627   3.323   3.775
  118POPC   C2M 6133   2.758   3.275   3.712
  118POPC   C2N 6134   2.767   3.305   3.561
  118POPC   C2O 6135   2.908   3.282   3.509
  118POPC   C2P 6136   2.925   3.332   3.365
  119POPC   CN1 6137   0.038   2.612   5.633
  119POPC   CN2 6138   0.212   2.734   5.535
  119POPC   CN3 6139   0.222   2.692   5.769
  119POPC   NTM 6140   0.132   2.723   5.658
  119POPC    CA 6141   0.051   2.844   5.691
  119POPC    CB 6142   0.122   2.979   5.717
  119POPC    OA 6143   0.174   3.024   5.595
  119POPC     P 6144   0.297   3.121   5.592
  119POPC    OB 6145   0.407   3.026   5.585
  119POPC    OC 6146   0.281   3.195   5.719
  119POPC    OD 6147   0.256   3.207   5.467
  119POPC    CC 6148   0.188   3.154   5.350
  119POPC    CD 6149   0.213   3.013   5.289
  119POPC    OE 6150   0.329   2.999   5.205
  119POPC   C1A 6151   0.372   2.876   5.176
  119POPC    OF 6152   0.339   2.784   5.253
  119POPC   C1B 6153   0.479   2.875   5.073
  119POPC   C1C 6154   0.469   2.758   4.975
  119POPC   C1D 6155   0.378   2.778   4.853
  119POPC   C1E 6156   0.375   2.645   4.776
  119POPC   C1F 6157   0.338   2.654   4.627
  119POPC   C1G 6158   0.394   2.530   4.556
  119POPC   C1H 6159   0.398   2.539   4.403
  119POPC   C1I 6160   0.486   2.430   4.340
  119POPC   C1J 6161   0.515   2.435   4.210
  119POPC   C1K 6162   0.452   2.549   4.129
  119POPC   C1L 6163   0.522   2.595   4.002
  119POPC   C1M 6164   0.522   2.503   3.880
  119POPC   C1N 6165   0.495   2.584   3.753
  119POPC   C1O 6166   0.574   2.527   3.636
  119POPC   C1P 6167   0.527   2.561   3.494
  119POPC   C1Q 6168   0.499   2.706   3.457
  119POPC   C1R 6169   0.475   2.715   3.306
  119POPC    CE 6170   0.080   2.969   5.225
  119POPC    OG 6171   0.025   3.059   5.129
  119POPC   C2A 6172   0.040   3.020   5.002
  119POPC    OH 6173   0.058   2.901   4.976
  119POPC   C2B 6174   0.001   3.126   4.906
  119POPC   C2C 6175   0.079   3.115   4.775
  119POPC   C2D 6176   0.041   3.228   4.680
  119POPC   C2E 6177   0.112   3.211   4.546
  119POPC   C2F 6178   0.080   3.326   4.449
  119POPC   C2G 6179   0.156   3.303   4.318
  119POPC   C2H 6180   0.132   3.415   4.217
  119POPC   C2I 6181   0.217   3.390   4.092
  119POPC   C2J 6182   0.199   3.501   3.988
  119POPC   C2K 6183   0.293   3.479   3.869
  119POPC   C2L 6184   0.276   3.592   3.767
  119POPC   C2M 6185   0.375   3.579   3.651
  119POPC   C2N 6186   0.359   3.696   3.554
  119POPC   C2O 6187   0.460   3.685   3.439
  119POPC   C2P 6188   0.449   3.804   3.343
  120POPC   CN1 6189   2.617   4.993   5.726
  120POPC   CN2 6190   2.550   5.175   5.603
  120POPC   CN3 6191   2.571   5.198   5.844
  120POPC   NTM 6192   2.530   5.111   5.734
  120POPC    CA 6193   2.387   5.078   5.754
  120POPC    CB 6194   2.285   5.194   5.757
  120POPC    OA 6195   2.282   5.258   5.632
  120POPC     P 6196   2.184   5.378   5.620
  120POPC    OB 6197   2.243   5.472   5.715
  120POPC    OC 6198   2.053   5.321   5.655
  120POPC    OD 6199   2.204   5.410   5.468
  120POPC    CC 6200   2.194   5.302   5.374
  120POPC    CD 6201   2.324   5.257   5.305
  120POPC    OE 6202   2.358   5.348   5.199
  120POPC   C1A 6203   2.482   5.339   5.155
  120POPC    OF 6204   2.566   5.282   5.226
  120POPC   C1B 6205   2.505   5.412   5.030
  120POPC   C1C 6206   2.655   5.426   5.010
  120POPC   C1D 6207   2.699   5.396   4.867
  120POPC   C1E 6208   2.851   5.419   4.863
  120POPC   C1F 6209   2.924   5.363   4.742
  120POPC   C1G 6210   2.946   5.454   4.621
  120POPC   C1H 6211   2.995   5.368   4.505
  120POPC   C1I 6212   3.131   5.402   4.446
  120POPC   C1J 6213   3.151   5.435   4.319
  120POPC   C1K 6214   3.034   5.445   4.223
  120POPC   C1L 6215   3.073   5.447   4.075
  120POPC   C1M 6216   3.068   5.309   4.008
  120POPC   C1N 6217   3.034   5.317   3.859
  120POPC   C1O 6218   3.128   5.407   3.778
  120POPC   C1P 6219   3.146   5.362   3.632
  120POPC   C1Q 6220   3.019   5.365   3.547
  120POPC   C1R 6221   3.052   5.319   3.404
  120POPC    CE 6222   2.319   5.108   5.261
  120POPC    OG 6223   2.249   5.071   5.142
  120POPC   C2A 6224   2.319   5.051   5.030
  120POPC    OH 6225   2.440   5.075   5.025
  120POPC   C2B 6226   2.237   5.004   4.914
  120POPC   C2C 6227   2.302   5.025   4.777
  120POPC   C2D 6228   2.213   4.973   4.663
  120POPC   C2E 6229   2.276   4.990   4.523
  120POPC   C2F 6230   2.171   4.971   4.412
  120POPC   C2G 6231   2.216   5.000   4.268
  120POPC   C2H 6232   2.113   5.093   4.200
  120POPC   C2I 6233   2.121   5.127   4.050
  120POPC   C2J 6234   2.021   5.236   4.005
  120POPC   C2K 6235   2.053   5.326   3.883
  120POPC   C2L 6236   2.062   5.275   3.738
  120POPC   C2M 6237   2.068   5.395   3.643
  120POPC   C2N 6238   2.073   5.368   3.491
  120POPC   C2O 6239   1.992   5.478   3.420
  120POPC   C2P 6240   1.984   5.469   3.267
  121POPC   CN1 6241   3.075   0.009   5.645
  121POPC   CN2 6242   3.167  -0.175   5.534
  121POPC   CN3 6243   3.166  -0.173   5.776
  121POPC   NTM 6244   3.182  -0.092   5.655
  121POPC    CA 6245   3.315  -0.025   5.654
  121POPC    CB 6246   3.441  -0.107   5.691
  121POPC    OA 6247   3.441  -0.232   5.623
  121POPC     P 6248   3.574  -0.318   5.622
  121POPC    OB 6249   3.526  -0.437   5.692
  121POPC    OC 6250   3.671  -0.228   5.689
  121POPC    OD 6251   3.601  -0.332   5.467
  121POPC    CC 6252   3.582  -0.226   5.372
  121POPC    CD 6253   3.445  -0.228   5.302
  121POPC    OE 6254   3.432  -0.332   5.204
  121POPC   C1A 6255   3.309  -0.369   5.173
  121POPC    OF 6256   3.219  -0.357   5.257
  121POPC   C1B 6257   3.304  -0.391   5.027
  121POPC   C1C 6258   3.217  -0.500   4.968
  121POPC   C1D 6259   3.212  -0.464   4.820
  121POPC   C1E 6260   3.122  -0.550   4.734
  121POPC   C1F 6261   3.110  -0.474   4.602
  121POPC   C1G 6262   3.017  -0.539   4.501
  121POPC   C1H 6263   2.987  -0.438   4.390
  121POPC   C1I 6264   2.891  -0.498   4.288
  121POPC   C1J 6265   2.933  -0.540   4.169
  121POPC   C1K 6266   3.079  -0.519   4.127
  121POPC   C1L 6267   3.103  -0.545   3.978
  121POPC   C1M 6268   3.013  -0.459   3.890
  121POPC   C1N 6269   3.044  -0.460   3.741
  121POPC   C1O 6270   3.013  -0.593   3.673
  121POPC   C1P 6271   2.990  -0.575   3.522
  121POPC   C1Q 6272   3.113  -0.524   3.447
  121POPC   C1R 6273   3.080  -0.500   3.300
  121POPC    CE 6274   3.412  -0.088   5.244
  121POPC    OG 6275   3.493  -0.040   5.136
  121POPC   C2A 6276   3.440  -0.052   5.014
  121POPC    OH 6277   3.318  -0.058   4.999
  121POPC   C2B 6278   3.541  -0.029   4.907
  121POPC   C2C 6279   3.511  -0.093   4.771
  121POPC   C2D 6280   3.640  -0.093   4.688
  121POPC   C2E 6281   3.622  -0.101   4.536
  121POPC   C2F 6282   3.759  -0.089   4.467
  121POPC   C2G 6283   3.749  -0.076   4.314
  121POPC   C2H 6284   3.885  -0.100   4.246
  121POPC   C2I 6285   3.868  -0.135   4.097
  121POPC   C2J 6286   3.997  -0.187   4.033
  121POPC   C2K 6287   3.971  -0.244   3.893
  121POPC   C2L 6288   4.095  -0.307   3.830
  121POPC   C2M 6289   4.057  -0.415   3.727
  121POPC   C2N 6290   4.085  -0.378   3.582
  121POPC   C2O 6291   4.050  -0.496   3.491
  121POPC   C2P 6292   4.083  -0.468   3.344
  122POPC   CN1 6293   5.096   4.162   5.877
  122POPC   CN2 6294   4.954   4.095   5.699
  122POPC   CN3 6295   4.867   4.107   5.923
  122POPC   NTM 6296   4.985   4.075   5.841
  122POPC    CA 6297   5.026   3.935   5.863
  122POPC    CB 6298   4.939   3.821   5.806
  122POPC    OA 6299   4.943   3.809   5.665
  122POPC     P 6300   4.846   3.695   5.617
  122POPC    OB 6301   4.712   3.725   5.669
  122POPC    OC 6302   4.914   3.589   5.691
  122POPC    OD 6303   4.873   3.678   5.463
  122POPC    CC 6304   4.991   3.729   5.397
  122POPC    CD 6305   4.985   3.872   5.339
  122POPC    OE 6306   4.888   3.889   5.234
  122POPC   C1A 6307   4.859   4.013   5.196
  122POPC    OF 6308   4.878   4.109   5.272
  122POPC   C1B 6309   4.797   4.012   5.062
  122POPC   C1C 6310   4.779   4.146   4.992
  122POPC   C1D 6311   4.870   4.148   4.870
  122POPC   C1E 6312   4.801   4.189   4.741
  122POPC   C1F 6313   4.895   4.282   4.664
  122POPC   C1G 6314   4.905   4.250   4.515
  122POPC   C1H 6315   4.994   4.350   4.439
  122POPC   C1I 6316   4.929   4.483   4.399
  122POPC   C1J 6317   4.903   4.503   4.270
  122POPC   C1K 6318   4.936   4.390   4.172
  122POPC   C1L 6319   4.875   4.409   4.032
  122POPC   C1M 6320   4.936   4.531   3.964
  122POPC   C1N 6321   4.997   4.499   3.828
  122POPC   C1O 6322   4.892   4.497   3.717
  122POPC   C1P 6323   4.952   4.541   3.583
  122POPC   C1Q 6324   5.045   4.438   3.521
  122POPC   C1R 6325   5.083   4.480   3.379
  122POPC    CE 6326   5.127   3.916   5.295
  122POPC    OG 6327   5.207   3.848   5.196
  122POPC   C2A 6328   5.208   3.903   5.073
  122POPC    OH 6329   5.117   3.977   5.037
  122POPC   C2B 6330   5.314   3.852   4.981
  122POPC   C2C 6331   5.288   3.880   4.832
  122POPC   C2D 6332   5.364   3.781   4.742
  122POPC   C2E 6333   5.340   3.799   4.591
  122POPC   C2F 6334   5.372   3.671   4.511
  122POPC   C2G 6335   5.336   3.685   4.362
  122POPC   C2H 6336   5.316   3.554   4.284
  122POPC   C2I 6337   5.252   3.584   4.147
  122POPC   C2J 6338   5.215   3.464   4.060
  122POPC   C2K 6339   5.139   3.508   3.935
  122POPC   C2L 6340   5.116   3.393   3.836
  122POPC   C2M 6341   5.045   3.440   3.708
  122POPC   C2N 6342   5.043   3.328   3.603
  122POPC   C2O 6343   4.983   3.376   3.470
  122POPC   C2P 6344   4.987   3.265   3.364
  123POPC   CN1 6345   5.333   1.029   5.733
  123POPC   CN2 6346   5.504   0.939   5.603
  123POPC   CN3 6347   5.531   0.949   5.842
  123POPC   NTM 6348   5.480   1.019   5.724
  123POPC    CA 6349   5.538   1.156   5.711
  123POPC    CB 6350   5.692   1.176   5.717
  123POPC    OA 6351   5.759   1.084   5.633
  123POPC     P 6352   5.915   1.103   5.612
  123POPC    OB 6353   5.964   0.979   5.673
  123POPC    OC 6354   5.949   1.232   5.675
  123POPC    OD 6355   5.928   1.105   5.454
  123POPC    CC 6356   5.829   1.168   5.371
  123POPC    CD 6357   5.722   1.073   5.310
  123POPC    OE 6358   5.771   0.987   5.205
  123POPC   C1A 6359   5.743   0.856   5.208
  123POPC    OF 6360   5.703   0.807   5.314
  123POPC   C1B 6361   5.811   0.788   5.094
  123POPC   C1C 6362   5.766   0.649   5.046
  123POPC   C1D 6363   5.666   0.656   4.930
  123POPC   C1E 6364   5.660   0.532   4.839
  123POPC   C1F 6365   5.541   0.547   4.743
  123POPC   C1G 6366   5.548   0.462   4.615
  123POPC   C1H 6367   5.449   0.513   4.509
  123POPC   C1I 6368   5.414   0.400   4.411
  123POPC   C1J 6369   5.426   0.405   4.279
  123POPC   C1K 6370   5.478   0.526   4.202
  123POPC   C1L 6371   5.459   0.513   4.050
  123POPC   C1M 6372   5.311   0.515   4.007
  123POPC   C1N 6373   5.291   0.526   3.856
  123POPC   C1O 6374   5.351   0.410   3.776
  123POPC   C1P 6375   5.305   0.410   3.629
  123POPC   C1Q 6376   5.348   0.535   3.553
  123POPC   C1R 6377   5.296   0.533   3.409
  123POPC    CE 6378   5.602   1.160   5.269
  123POPC    OG 6379   5.628   1.261   5.170
  123POPC   C2A 6380   5.582   1.233   5.048
  123POPC    OH 6381   5.491   1.152   5.033
  123POPC   C2B 6382   5.635   1.323   4.943
  123POPC   C2C 6383   5.644   1.250   4.809
  123POPC   C2D 6384   5.719   1.330   4.701
  123POPC   C2E 6385   5.700   1.262   4.565
  123POPC   C2F 6386   5.794   1.315   4.457
  123POPC   C2G 6387   5.765   1.250   4.322
  123POPC   C2H 6388   5.879   1.277   4.224
  123POPC   C2I 6389   5.861   1.215   4.085
  123POPC   C2J 6390   5.984   1.244   4.000
  123POPC   C2K 6391   5.977   1.184   3.859
  123POPC   C2L 6392   6.081   1.252   3.770
  123POPC   C2M 6393   6.104   1.171   3.642
  123POPC   C2N 6394   6.196   1.245   3.545
  123POPC   C2O 6395   6.230   1.154   3.426
  123POPC   C2P 6396   6.313   1.227   3.321
  124POPC   CN1 6397   4.248   3.218   5.699
  124POPC   CN2 6398   4.082   3.345   5.606
  124POPC   CN3 6399   4.110   3.333   5.849
  124POPC   NTM 6400   4.111   3.259   5.722
  124POPC    CA 6401   4.033   3.133   5.725
  124POPC    CB 6402   3.880   3.133   5.742
  124POPC    OA 6403   3.814   3.214   5.645
  124POPC     P 6404   3.664   3.173   5.608
  124POPC    OB 6405   3.596   3.295   5.651
  124POPC    OC 6406   3.643   3.051   5.689
  124POPC    OD 6407   3.667   3.147   5.454
  124POPC    CC 6408   3.765   3.070   5.384
  124POPC    CD 6409   3.890   3.149   5.337
  124POPC    OE 6410   3.865   3.248   5.237
  124POPC   C1A 6411   3.953   3.346   5.218
  124POPC    OF 6412   4.039   3.364   5.307
  124POPC   C1B 6413   3.917   3.434   5.106
  124POPC   C1C 6414   4.036   3.493   5.029
  124POPC   C1D 6415   4.105   3.392   4.936
  124POPC   C1E 6416   4.200   3.469   4.846
  124POPC   C1F 6417   4.262   3.383   4.735
  124POPC   C1G 6418   4.300   3.480   4.623
  124POPC   C1H 6419   4.352   3.419   4.493
  124POPC   C1I 6420   4.347   3.533   4.391
  124POPC   C1J 6421   4.376   3.525   4.261
  124POPC   C1K 6422   4.434   3.397   4.202
  124POPC   C1L 6423   4.486   3.417   4.059
  124POPC   C1M 6424   4.590   3.310   4.024
  124POPC   C1N 6425   4.605   3.263   3.878
  124POPC   C1O 6426   4.633   3.372   3.773
  124POPC   C1P 6427   4.666   3.321   3.631
  124POPC   C1Q 6428   4.566   3.230   3.559
  124POPC   C1R 6429   4.569   3.253   3.408
  124POPC    CE 6430   4.002   3.048   5.304
  124POPC    OG 6431   3.971   2.941   5.214
  124POPC   C2A 6432   3.984   2.972   5.084
  124POPC    OH 6433   4.051   3.070   5.052
  124POPC   C2B 6434   3.938   2.864   4.992
  124POPC   C2C 6435   3.950   2.912   4.847
  124POPC   C2D 6436   3.900   2.818   4.737
  124POPC   C2E 6437   3.926   2.891   4.604
  124POPC   C2F 6438   3.866   2.825   4.479
  124POPC   C2G 6439   3.903   2.899   4.350
  124POPC   C2H 6440   3.848   2.827   4.226
  124POPC   C2I 6441   3.858   2.898   4.091
  124POPC   C2J 6442   3.761   2.830   3.993
  124POPC   C2K 6443   3.759   2.883   3.849
  124POPC   C2L 6444   3.627   2.847   3.779
  124POPC   C2M 6445   3.618   2.897   3.635
  124POPC   C2N 6446   3.481   2.873   3.570
  124POPC   C2O 6447   3.482   2.921   3.425
  124POPC   C2P 6448   3.360   2.873   3.346
  125POPC   CN1 6449   3.173   4.959   5.700
  125POPC   CN2 6450   3.146   5.170   5.600
  125POPC   CN3 6451   3.204   5.157   5.833
  125POPC   NTM 6452   3.125   5.096   5.726
  125POPC    CA 6453   2.985   5.093   5.773
  125POPC    CB 6454   2.911   5.228   5.781
  125POPC    OA 6455   2.844   5.250   5.660
  125POPC     P 6456   2.833   5.403   5.623
  125POPC    OB 6457   2.967   5.457   5.647
  125POPC    OC 6458   2.734   5.443   5.725
  125POPC    OD 6459   2.777   5.397   5.478
  125POPC    CC 6460   2.795   5.282   5.393
  125POPC    CD 6461   2.928   5.254   5.322
  125POPC    OE 6462   2.960   5.361   5.233
  125POPC   C1A 6463   3.088   5.380   5.209
  125POPC    OF 6464   3.173   5.328   5.282
  125POPC   C1B 6465   3.103   5.494   5.117
  125POPC   C1C 6466   3.231   5.487   5.036
  125POPC   C1D 6467   3.233   5.397   4.913
  125POPC   C1E 6468   3.358   5.441   4.841
  125POPC   C1F 6469   3.349   5.426   4.690
  125POPC   C1G 6470   3.478   5.477   4.626
  125POPC   C1H 6471   3.480   5.451   4.475
  125POPC   C1I 6472   3.621   5.451   4.417
  125POPC   C1J 6473   3.627   5.446   4.285
  125POPC   C1K 6474   3.491   5.443   4.214
  125POPC   C1L 6475   3.495   5.466   4.062
  125POPC   C1M 6476   3.560   5.347   3.993
  125POPC   C1N 6477   3.545   5.348   3.841
  125POPC   C1O 6478   3.617   5.465   3.773
  125POPC   C1P 6479   3.646   5.439   3.625
  125POPC   C1Q 6480   3.522   5.400   3.544
  125POPC   C1R 6481   3.561   5.357   3.402
  125POPC    CE 6482   2.931   5.111   5.262
  125POPC    OG 6483   2.841   5.073   5.157
  125POPC   C2A 6484   2.888   5.073   5.032
  125POPC    OH 6485   3.009   5.078   5.011
  125POPC   C2B 6486   2.781   5.051   4.931
  125POPC   C2C 6487   2.822   5.039   4.783
  125POPC   C2D 6488   2.706   5.079   4.688
  125POPC   C2E 6489   2.754   5.106   4.545
  125POPC   C2F 6490   2.653   5.160   4.442
  125POPC   C2G 6491   2.731   5.235   4.333
  125POPC   C2H 6492   2.670   5.259   4.194
  125POPC   C2I 6493   2.713   5.395   4.134
  125POPC   C2J 6494   2.711   5.405   3.980
  125POPC   C2K 6495   2.715   5.546   3.919
  125POPC   C2L 6496   2.681   5.539   3.769
  125POPC   C2M 6497   2.653   5.672   3.699
  125POPC   C2N 6498   2.612   5.648   3.553
  125POPC   C2O 6499   2.575   5.778   3.483
  125POPC   C2P 6500   2.548   5.758   3.334
  126POPC   CN1 6501   2.498   1.830   5.785
  126POPC   CN2 6502   2.593   1.701   5.614
  126POPC   CN3 6503   2.592   1.613   5.836
  126POPC   NTM 6504   2.606   1.736   5.758
  126POPC    CA 6505   2.733   1.806   5.790
  126POPC    CB 6506   2.870   1.741   5.764
  126POPC    OA 6507   2.881   1.704   5.629
  126POPC     P 6508   2.993   1.600   5.602
  126POPC    OB 6509   2.927   1.481   5.662
  126POPC    OC 6510   3.107   1.654   5.676
  126POPC    OD 6511   3.020   1.591   5.449
  126POPC    CC 6512   2.999   1.711   5.372
  126POPC    CD 6513   2.853   1.729   5.326
  126POPC    OE 6514   2.814   1.636   5.226
  126POPC   C1A 6515   2.684   1.614   5.210
  126POPC    OF 6516   2.606   1.634   5.304
  126POPC   C1B 6517   2.663   1.535   5.089
  126POPC   C1C 6518   2.536   1.573   5.013
  126POPC   C1D 6519   2.555   1.667   4.894
  126POPC   C1E 6520   2.452   1.621   4.792
  126POPC   C1F 6521   2.425   1.711   4.673
  126POPC   C1G 6522   2.313   1.643   4.594
  126POPC   C1H 6523   2.273   1.715   4.466
  126POPC   C1I 6524   2.162   1.636   4.396
  126POPC   C1J 6525   2.178   1.596   4.270
  126POPC   C1K 6526   2.305   1.633   4.192
  126POPC   C1L 6527   2.287   1.629   4.039
  126POPC   C1M 6528   2.175   1.723   3.993
  126POPC   C1N 6529   2.170   1.753   3.843
  126POPC   C1O 6530   2.117   1.640   3.755
  126POPC   C1P 6531   2.079   1.693   3.616
  126POPC   C1Q 6532   2.199   1.717   3.524
  126POPC   C1R 6533   2.154   1.779   3.391
  126POPC    CE 6534   2.831   1.876   5.289
  126POPC    OG 6535   2.913   1.929   5.185
  126POPC   C2A 6536   2.861   1.922   5.063
  126POPC    OH 6537   2.745   1.888   5.041
  126POPC   C2B 6538   2.958   1.967   4.961
  126POPC   C2C 6539   2.930   1.904   4.825
  126POPC   C2D 6540   3.045   1.940   4.732
  126POPC   C2E 6541   3.020   1.881   4.594
  126POPC   C2F 6542   3.138   1.908   4.502
  126POPC   C2G 6543   3.113   1.842   4.367
  126POPC   C2H 6544   3.220   1.875   4.263
  126POPC   C2I 6545   3.188   1.798   4.135
  126POPC   C2J 6546   3.283   1.832   4.020
  126POPC   C2K 6547   3.258   1.732   3.908
  126POPC   C2L 6548   3.344   1.755   3.784
  126POPC   C2M 6549   3.325   1.634   3.692
  126POPC   C2N 6550   3.394   1.652   3.556
  126POPC   C2O 6551   3.373   1.526   3.471
  126POPC   C2P 6552   3.423   1.547   3.328
  127POPC   CN1 6553   2.429   2.507   5.712
  127POPC   CN2 6554   2.460   2.306   5.597
  127POPC   CN3 6555   2.464   2.300   5.835
  127POPC   NTM 6556   2.500   2.380   5.718
  127POPC    CA 6557   2.641   2.427   5.725
  127POPC    CB 6558   2.758   2.327   5.732
  127POPC    OA 6559   2.744   2.251   5.617
  127POPC     P 6560   2.819   2.115   5.597
  127POPC    OB 6561   2.698   2.033   5.606
  127POPC    OC 6562   2.910   2.111   5.712
  127POPC    OD 6563   2.876   2.139   5.453
  127POPC    CC 6564   2.818   2.232   5.358
  127POPC    CD 6565   2.668   2.233   5.317
  127POPC    OE 6566   2.619   2.114   5.249
  127POPC   C1A 6567   2.488   2.100   5.226
  127POPC    OF 6568   2.410   2.153   5.307
  127POPC   C1B 6569   2.458   1.987   5.135
  127POPC   C1C 6570   2.323   1.991   5.062
  127POPC   C1D 6571   2.330   2.032   4.915
  127POPC   C1E 6572   2.194   2.009   4.849
  127POPC   C1F 6573   2.196   2.027   4.697
  127POPC   C1G 6574   2.055   2.010   4.636
  127POPC   C1H 6575   2.059   2.022   4.483
  127POPC   C1I 6576   1.923   2.063   4.425
  127POPC   C1J 6577   1.897   2.054   4.295
  127POPC   C1K 6578   2.004   2.004   4.198
  127POPC   C1L 6579   1.980   2.033   4.048
  127POPC   C1M 6580   1.927   2.172   4.008
  127POPC   C1N 6581   1.959   2.220   3.865
  127POPC   C1O 6582   1.981   2.113   3.757
  127POPC   C1P 6583   1.959   2.173   3.618
  127POPC   C1Q 6584   2.067   2.132   3.519
  127POPC   C1R 6585   2.031   2.178   3.377
  127POPC    CE 6586   2.648   2.366   5.243
  127POPC    OG 6587   2.742   2.389   5.138
  127POPC   C2A 6588   2.721   2.322   5.025
  127POPC    OH 6589   2.611   2.273   4.999
  127POPC   C2B 6590   2.837   2.330   4.935
  127POPC   C2C 6591   2.805   2.274   4.798
  127POPC   C2D 6592   2.910   2.310   4.693
  127POPC   C2E 6593   2.871   2.231   4.569
  127POPC   C2F 6594   2.954   2.263   4.445
  127POPC   C2G 6595   2.927   2.155   4.341
  127POPC   C2H 6596   2.998   2.175   4.208
  127POPC   C2I 6597   2.947   2.079   4.101
  127POPC   C2J 6598   3.014   2.108   3.967
  127POPC   C2K 6599   2.964   2.011   3.860
  127POPC   C2L 6600   3.047   2.027   3.732
  127POPC   C2M 6601   2.992   1.939   3.621
  127POPC   C2N 6602   3.091   1.932   3.504
  127POPC   C2O 6603   3.031   1.851   3.389
  127POPC   C2P 6604   3.137   1.823   3.281
  128POPC   CN1 6605   1.687   0.767   5.677
  128POPC   CN2 6606   1.478   0.761   5.570
  128POPC   CN3 6607   1.489   0.820   5.799
  128POPC   NTM 6608   1.546   0.731   5.697
  128POPC    CA 6609   1.539   0.589   5.739
  128POPC    CB 6610   1.405   0.511   5.750
  128POPC    OA 6611   1.351   0.476   5.624
  128POPC     P 6612   1.194   0.481   5.624
  128POPC    OB 6613   1.180   0.623   5.656
  128POPC    OC 6614   1.147   0.387   5.726
  128POPC    OD 6615   1.143   0.451   5.478
  128POPC    CC 6616   1.238   0.413   5.378
  128POPC    CD 6617   1.324   0.527   5.320
  128POPC    OE 6618   1.257   0.604   5.219
  128POPC   C1A 6619   1.301   0.727   5.198
  128POPC    OF 6620   1.369   0.785   5.283
  128POPC   C1B 6621   1.248   0.778   5.070
  128POPC   C1C 6622   1.335   0.886   5.006
  128POPC   C1D 6623   1.351   0.849   4.858
  128POPC   C1E 6624   1.372   0.974   4.774
  128POPC   C1F 6625   1.418   0.934   4.634
  128POPC   C1G 6626   1.430   1.057   4.546
  128POPC   C1H 6627   1.487   1.020   4.410
  128POPC   C1I 6628   1.489   1.143   4.319
  128POPC   C1J 6629   1.447   1.133   4.193
  128POPC   C1K 6630   1.399   0.998   4.138
  128POPC   C1L 6631   1.403   0.990   3.985
  128POPC   C1M 6632   1.545   1.007   3.928
  128POPC   C1N 6633   1.554   0.980   3.777
  128POPC   C1O 6634   1.470   1.075   3.691
  128POPC   C1P 6635   1.503   1.063   3.542
  128POPC   C1Q 6636   1.471   0.926   3.483
  128POPC   C1R 6637   1.515   0.918   3.337
  128POPC    CE 6638   1.459   0.468   5.274
  128POPC    OG 6639   1.452   0.370   5.169
  128POPC   C2A 6640   1.471   0.416   5.045
  128POPC    OH 6641   1.520   0.527   5.025
  128POPC   C2B 6642   1.447   0.311   4.944
  128POPC   C2C 6643   1.392   0.368   4.812
  128POPC   C2D 6644   1.356   0.253   4.717
  128POPC   C2E 6645   1.309   0.307   4.582
  128POPC   C2F 6646   1.265   0.194   4.489
  128POPC   C2G 6647   1.223   0.251   4.354
  128POPC   C2H 6648   1.166   0.145   4.260
  128POPC   C2I 6649   1.116   0.211   4.131
  128POPC   C2J 6650   1.050   0.111   4.036
  128POPC   C2K 6651   0.985   0.185   3.919
  128POPC   C2L 6652   0.919   0.088   3.821
  128POPC   C2M 6653   0.839   0.166   3.716
  128POPC   C2N 6654   0.776   0.074   3.611
  128POPC   C2O 6655   0.688   0.156   3.516
  128POPC   C2P 6656   0.633   0.070   3.402
   6.31000   6.34000  16.00000
