pure POPC
 6656
    1POPC   CN1    1   4.222   4.397   0.420
    1POPC   CN2    2   4.436   4.430   0.511
    1POPC   CN3    3   4.398   4.462   0.274
    1POPC   NTM    4   4.365   4.381   0.392
    1POPC    CA    5   4.392   4.236   0.372
    1POPC    CB    6   4.521   4.183   0.305
    1POPC    OA    7   4.641   4.235   0.362
    1POPC     P    8   4.770   4.142   0.350
    1POPC    OB    9   4.867   4.222   0.274
    1POPC    OC   10   4.722   4.014   0.295
    1POPC    OD   11   4.816   4.119   0.498
    1POPC    CC   12   4.729   4.053   0.592
    1POPC    CD   13   4.646   4.148   0.680
    1POPC    OE   14   4.718   4.200   0.793
    1POPC   C1A   15   4.681   4.318   0.842
    1POPC    OF   16   4.607   4.389   0.773
    1POPC   C1B   17   4.764   4.355   0.959
    1POPC   C1C   18   4.693   4.411   1.082
    1POPC   C1D   19   4.602   4.317   1.162
    1POPC   C1E   20   4.590   4.376   1.302
    1POPC   C1F   21   4.468   4.343   1.388
    1POPC   C1G   22   4.479   4.431   1.513
    1POPC   C1H   23   4.355   4.445   1.601
    1POPC   C1I   24   4.364   4.573   1.686
    1POPC   C1J   25   4.410   4.578   1.811
    1POPC   C1K   26   4.454   4.451   1.886
    1POPC   C1L   27   4.450   4.465   2.039
    1POPC   C1M   28   4.311   4.499   2.094
    1POPC   C1N   29   4.296   4.476   2.245
    1POPC   C1O   30   4.393   4.557   2.331
    1POPC   C1P   31   4.363   4.540   2.481
    1POPC   C1Q   32   4.382   4.396   2.529
    1POPC   C1R   33   4.339   4.382   2.676
    1POPC    CE   34   4.512   4.079   0.715
    1POPC    OG   35   4.520   3.962   0.797
    1POPC   C2A   36   4.490   3.983   0.925
    1POPC    OH   37   4.413   4.075   0.955
    1POPC   C2B   38   4.531   3.872   1.013
    1POPC   C2C   39   4.545   3.914   1.159
    1POPC   C2D   40   4.578   3.791   1.244
    1POPC   C2E   41   4.575   3.823   1.394
    1POPC   C2F   42   4.620   3.700   1.473
    1POPC   C2G   43   4.618   3.728   1.623
    1POPC   C2H   44   4.669   3.608   1.703
    1POPC   C2I   45   4.677   3.646   1.851
    1POPC   C2J   46   4.753   3.543   1.934
    1POPC   C2K   47   4.787   3.604   2.069
    1POPC   C2L   48   4.873   3.511   2.155
    1POPC   C2M   49   4.919   3.585   2.281
    1POPC   C2N   50   5.000   3.492   2.372
    1POPC   C2O   51   5.051   3.567   2.495
    1POPC   C2P   52   5.128   3.473   2.588
    2POPC   CN1   53   5.405   4.433   0.330
    2POPC   CN2   54   5.617   4.476   0.415
    2POPC   CN3   55   5.556   4.575   0.209
    2POPC   NTM   56   5.544   4.453   0.288
    2POPC    CA   57   5.584   4.339   0.202
    2POPC    CB   58   5.711   4.255   0.226
    2POPC    OA   59   5.711   4.211   0.360
    2POPC     P   60   5.830   4.114   0.401
    2POPC    OB   61   5.937   4.175   0.318
    2POPC    OC   62   5.743   4.005   0.358
    2POPC    OD   63   5.818   4.178   0.543
    2POPC    CC   64   5.714   4.133   0.630
    2POPC    CD   65   5.656   4.249   0.715
    2POPC    OE   66   5.744   4.298   0.819
    2POPC   C1A   67   5.829   4.395   0.789
    2POPC    OF   68   5.817   4.463   0.685
    2POPC   C1B   69   5.940   4.402   0.888
    2POPC   C1C   70   5.959   4.530   0.970
    2POPC   C1D   71   5.859   4.550   1.084
    2POPC   C1E   72   5.918   4.642   1.192
    2POPC   C1F   73   5.811   4.700   1.286
    2POPC   C1G   74   5.869   4.799   1.388
    2POPC   C1H   75   5.763   4.855   1.484
    2POPC   C1I   76   5.820   4.975   1.560
    2POPC   C1J   77   5.785   5.015   1.683
    2POPC   C1K   78   5.679   4.950   1.772
    2POPC   C1L   79   5.715   4.968   1.920
    2POPC   C1M   80   5.592   4.940   2.005
    2POPC   C1N   81   5.614   4.914   2.155
    2POPC   C1O   82   5.676   5.030   2.233
    2POPC   C1P   83   5.624   5.037   2.377
    2POPC   C1Q   84   5.649   4.909   2.458
    2POPC   C1R   85   5.600   4.926   2.603
    2POPC    CE   86   5.512   4.219   0.757
    2POPC    OG   87   5.481   4.111   0.846
    2POPC   C2A   88   5.411   4.142   0.954
    2POPC    OH   89   5.336   4.240   0.950
    2POPC   C2B   90   5.410   4.038   1.060
    2POPC   C2C   91   5.410   4.095   1.202
    2POPC   C2D   92   5.423   3.983   1.306
    2POPC   C2E   93   5.440   4.036   1.449
    2POPC   C2F   94   5.476   3.921   1.544
    2POPC   C2G   95   5.506   3.969   1.687
    2POPC   C2H   96   5.556   3.853   1.774
    2POPC   C2I   97   5.594   3.901   1.915
    2POPC   C2J   98   5.661   3.792   2.000
    2POPC   C2K   99   5.717   3.856   2.127
    2POPC   C2L  100   5.797   3.762   2.217
    2POPC   C2M  101   5.873   3.847   2.320
    2POPC   C2N  102   5.930   3.766   2.437
    2POPC   C2O  103   6.002   3.860   2.533
    2POPC   C2P  104   6.030   3.792   2.668
    3POPC   CN1  105   3.376   3.447   0.444
    3POPC   CN2  106   3.609   3.439   0.459
    3POPC   CN3  107   3.507   3.419   0.242
    3POPC   NTM  108   3.495   3.384   0.384
    3POPC    CA  109   3.487   3.239   0.413
    3POPC    CB  110   3.552   3.134   0.319
    3POPC    OA  111   3.555   3.003   0.374
    3POPC     P  112   3.706   2.961   0.402
    3POPC    OB  113   3.780   3.086   0.421
    3POPC    OC  114   3.730   2.888   0.276
    3POPC    OD  115   3.695   2.865   0.526
    3POPC    CC  116   3.647   2.905   0.656
    3POPC    CD  117   3.634   3.053   0.701
    3POPC    OE  118   3.754   3.106   0.762
    3POPC   C1A  119   3.765   3.238   0.780
    3POPC    OF  120   3.701   3.310   0.702
    3POPC   C1B  121   3.886   3.277   0.856
    3POPC   C1C  122   3.876   3.395   0.953
    3POPC   C1D  123   3.870   3.362   1.103
    3POPC   C1E  124   3.866   3.494   1.180
    3POPC   C1F  125   3.857   3.489   1.333
    3POPC   C1G  126   3.842   3.633   1.385
    3POPC   C1H  127   3.844   3.645   1.538
    3POPC   C1I  128   3.821   3.790   1.581
    3POPC   C1J  129   3.814   3.823   1.710
    3POPC   C1K  130   3.834   3.714   1.815
    3POPC   C1L  131   3.864   3.762   1.958
    3POPC   C1M  132   3.752   3.843   2.027
    3POPC   C1N  133   3.748   3.832   2.180
    3POPC   C1O  134   3.885   3.822   2.250
    3POPC   C1P  135   3.896   3.879   2.391
    3POPC   C1Q  136   3.793   3.829   2.492
    3POPC   C1R  137   3.813   3.893   2.629
    3POPC    CE  138   3.504   3.058   0.783
    3POPC    OG  139   3.509   2.976   0.899
    3POPC   C2A  140   3.510   3.045   1.012
    3POPC    OH  141   3.458   3.156   1.017
    3POPC   C2B  142   3.562   2.967   1.126
    3POPC   C2C  143   3.657   3.050   1.212
    3POPC   C2D  144   3.702   2.966   1.330
    3POPC   C2E  145   3.762   3.052   1.441
    3POPC   C2F  146   3.792   2.958   1.558
    3POPC   C2G  147   3.827   3.029   1.688
    3POPC   C2H  148   3.856   2.921   1.791
    3POPC   C2I  149   3.883   2.975   1.931
    3POPC   C2J  150   3.927   2.860   2.020
    3POPC   C2K  151   3.940   2.904   2.166
    3POPC   C2L  152   3.999   2.792   2.252
    3POPC   C2M  153   4.026   2.842   2.393
    3POPC   C2N  154   4.087   2.733   2.482
    3POPC   C2O  155   4.124   2.790   2.619
    3POPC   C2P  156   4.181   2.682   2.711
    4POPC   CN1  157   3.916   3.157   0.096
    4POPC   CN2  158   4.061   3.146   0.286
    4POPC   CN3  159   4.150   3.112   0.063
    4POPC   NTM  160   4.035   3.091   0.152
    4POPC    CA  161   4.003   2.947   0.163
    4POPC    CB  162   4.112   2.846   0.203
    4POPC    OA  163   4.179   2.885   0.322
    4POPC     P  164   4.296   2.786   0.358
    4POPC    OB  165   4.387   2.836   0.254
    4POPC    OC  166   4.232   2.655   0.345
    4POPC    OD  167   4.326   2.836   0.501
    4POPC    CC  168   4.222   2.819   0.599
    4POPC    CD  169   4.158   2.953   0.639
    4POPC    OE  170   4.249   3.035   0.714
    4POPC   C1A  171   4.231   3.166   0.723
    4POPC    OF  172   4.190   3.224   0.621
    4POPC   C1B  173   4.307   3.222   0.837
    4POPC   C1C  174   4.257   3.353   0.899
    4POPC   C1D  175   4.250   3.340   1.052
    4POPC   C1E  176   4.263   3.474   1.124
    4POPC   C1F  177   4.228   3.461   1.272
    4POPC   C1G  178   4.256   3.588   1.352
    4POPC   C1H  179   4.218   3.576   1.501
    4POPC   C1I  180   4.248   3.707   1.573
    4POPC   C1J  181   4.251   3.724   1.705
    4POPC   C1K  182   4.221   3.612   1.804
    4POPC   C1L  183   4.221   3.665   1.947
    4POPC   C1M  184   4.174   3.556   2.043
    4POPC   C1N  185   4.149   3.605   2.186
    4POPC   C1O  186   4.274   3.646   2.264
    4POPC   C1P  187   4.239   3.696   2.405
    4POPC   C1Q  188   4.175   3.588   2.492
    4POPC   C1R  189   4.133   3.641   2.629
    4POPC    CE  190   4.022   2.926   0.705
    4POPC    OG  191   4.016   2.846   0.824
    4POPC   C2A  192   4.032   2.911   0.940
    4POPC    OH  193   4.038   3.033   0.945
    4POPC   C2B  194   4.018   2.822   1.057
    4POPC   C2C  195   4.097   2.871   1.178
    4POPC   C2D  196   4.067   2.781   1.297
    4POPC   C2E  197   4.152   2.823   1.416
    4POPC   C2F  198   4.120   2.738   1.539
    4POPC   C2G  199   4.220   2.773   1.649
    4POPC   C2H  200   4.187   2.699   1.778
    4POPC   C2I  201   4.302   2.720   1.876
    4POPC   C2J  202   4.269   2.662   2.013
    4POPC   C2K  203   4.394   2.667   2.099
    4POPC   C2L  204   4.365   2.636   2.246
    4POPC   C2M  205   4.496   2.634   2.325
    4POPC   C2N  206   4.468   2.616   2.474
    4POPC   C2O  207   4.598   2.600   2.552
    4POPC   C2P  208   4.571   2.590   2.702
    5POPC   CN1  209   6.038   2.415   0.330
    5POPC   CN2  210   5.834   2.411   0.450
    5POPC   CN3  211   5.825   2.415   0.213
    5POPC   NTM  212   5.900   2.465   0.329
    5POPC    CA  213   5.903   2.614   0.329
    5POPC    CB  214   5.771   2.694   0.319
    5POPC    OA  215   5.685   2.659   0.425
    5POPC     P  216   5.535   2.699   0.395
    5POPC    OB  217   5.515   2.612   0.278
    5POPC    OC  218   5.549   2.844   0.384
    5POPC    OD  219   5.475   2.649   0.531
    5POPC    CC  220   5.538   2.695   0.651
    5POPC    CD  221   5.597   2.575   0.729
    5POPC    OE  222   5.502   2.521   0.823
    5POPC   C1A  223   5.510   2.391   0.847
    5POPC    OF  224   5.620   2.334   0.842
    5POPC   C1B  225   5.381   2.336   0.895
    5POPC   C1C  226   5.392   2.204   0.970
    5POPC   C1D  227   5.459   2.220   1.106
    5POPC   C1E  228   5.455   2.086   1.178
    5POPC   C1F  229   5.518   2.095   1.316
    5POPC   C1G  230   5.506   1.959   1.383
    5POPC   C1H  231   5.566   1.956   1.523
    5POPC   C1I  232   5.524   1.824   1.585
    5POPC   C1J  233   5.477   1.819   1.709
    5POPC   C1K  234   5.474   1.944   1.797
    5POPC   C1L  235   5.471   1.913   1.947
    5POPC   C1M  236   5.572   1.806   1.987
    5POPC   C1N  237   5.614   1.805   2.134
    5POPC   C1O  238   5.502   1.791   2.238
    5POPC   C1P  239   5.571   1.790   2.374
    5POPC   C1Q  240   5.473   1.793   2.490
    5POPC   C1R  241   5.548   1.802   2.623
    5POPC    CE  242   5.737   2.614   0.781
    5POPC    OG  243   5.744   2.697   0.897
    5POPC   C2A  244   5.774   2.632   1.009
    5POPC    OH  245   5.842   2.529   1.007
    5POPC   C2B  246   5.752   2.714   1.130
    5POPC   C2C  247   5.667   2.640   1.233
    5POPC   C2D  248   5.648   2.727   1.357
    5POPC   C2E  249   5.551   2.660   1.454
    5POPC   C2F  250   5.531   2.748   1.578
    5POPC   C2G  251   5.422   2.687   1.667
    5POPC   C2H  252   5.399   2.773   1.791
    5POPC   C2I  253   5.281   2.717   1.870
    5POPC   C2J  254   5.258   2.802   1.995
    5POPC   C2K  255   5.133   2.757   2.069
    5POPC   C2L  256   5.112   2.843   2.193
    5POPC   C2M  257   4.996   2.791   2.278
    5POPC   C2N  258   4.994   2.864   2.412
    5POPC   C2O  259   4.913   2.783   2.513
    5POPC   C2P  260   4.918   2.845   2.652
    6POPC   CN1  261   5.227   3.967   0.362
    6POPC   CN2  262   5.432   3.928   0.472
    6POPC   CN3  263   5.435   4.000   0.243
    6POPC   NTM  264   5.363   3.919   0.342
    6POPC    CA  265   5.359   3.780   0.292
    6POPC    CB  266   5.488   3.697   0.271
    6POPC    OA  267   5.553   3.674   0.394
    6POPC     P  268   5.649   3.550   0.383
    6POPC    OB  269   5.743   3.597   0.280
    6POPC    OC  270   5.551   3.445   0.354
    6POPC    OD  271   5.698   3.547   0.531
    6POPC    CC  272   5.596   3.525   0.630
    6POPC    CD  273   5.573   3.649   0.718
    6POPC    OE  274   5.672   3.667   0.821
    6POPC   C1A  275   5.711   3.791   0.849
    6POPC    OF  276   5.656   3.886   0.793
    6POPC   C1B  277   5.830   3.795   0.937
    6POPC   C1C  278   5.866   3.932   0.995
    6POPC   C1D  279   5.795   3.959   1.128
    6POPC   C1E  280   5.861   4.076   1.201
    6POPC   C1F  281   5.817   4.079   1.347
    6POPC   C1G  282   5.900   4.177   1.430
    6POPC   C1H  283   5.865   4.167   1.579
    6POPC   C1I  284   5.950   4.264   1.661
    6POPC   C1J  285   5.968   4.249   1.792
    6POPC   C1K  286   5.904   4.134   1.870
    6POPC   C1L  287   5.891   4.161   2.020
    6POPC   C1M  288   5.772   4.251   2.057
    6POPC   C1N  289   5.739   4.251   2.207
    6POPC   C1O  290   5.854   4.299   2.296
    6POPC   C1P  291   5.815   4.311   2.444
    6POPC   C1Q  292   5.778   4.177   2.507
    6POPC   C1R  293   5.749   4.191   2.657
    6POPC    CE  294   5.427   3.645   0.767
    6POPC    OG  295   5.396   3.555   0.875
    6POPC   C2A  296   5.385   3.612   0.994
    6POPC    OH  297   5.368   3.734   1.006
    6POPC   C2B  298   5.368   3.514   1.103
    6POPC   C2C  299   5.424   3.565   1.235
    6POPC   C2D  300   5.406   3.458   1.343
    6POPC   C2E  301   5.467   3.503   1.475
    6POPC   C2F  302   5.461   3.388   1.576
    6POPC   C2G  303   5.537   3.425   1.703
    6POPC   C2H  304   5.548   3.305   1.796
    6POPC   C2I  305   5.639   3.340   1.914
    6POPC   C2J  306   5.662   3.219   2.004
    6POPC   C2K  307   5.762   3.256   2.114
    6POPC   C2L  308   5.791   3.137   2.205
    6POPC   C2M  309   5.896   3.176   2.309
    6POPC   C2N  310   5.927   3.060   2.403
    6POPC   C2O  311   6.035   3.100   2.503
    6POPC   C2P  312   6.066   2.985   2.599
    7POPC   CN1  313   4.660   2.673   0.161
    7POPC   CN2  314   4.804   2.626   0.341
    7POPC   CN3  315   4.894   2.641   0.122
    7POPC   NTM  316   4.777   2.595   0.199
    7POPC    CA  317   4.748   2.451   0.175
    7POPC    CB  318   4.855   2.343   0.201
    7POPC    OA  319   4.901   2.350   0.334
    7POPC     P  320   5.057   2.321   0.342
    7POPC    OB  321   5.101   2.417   0.240
    7POPC    OC  322   5.049   2.178   0.312
    7POPC    OD  323   5.073   2.372   0.490
    7POPC    CC  324   4.991   2.317   0.592
    7POPC    CD  325   4.907   2.427   0.660
    7POPC    OE  326   4.966   2.481   0.780
    7POPC   C1A  327   4.955   2.613   0.801
    7POPC    OF  328   4.877   2.678   0.731
    7POPC   C1B  329   5.045   2.662   0.908
    7POPC   C1C  330   5.011   2.797   0.972
    7POPC   C1D  331   4.909   2.785   1.085
    7POPC   C1E  332   4.914   2.906   1.179
    7POPC   C1F  333   4.818   2.883   1.297
    7POPC   C1G  334   4.827   2.987   1.408
    7POPC   C1H  335   4.734   2.954   1.526
    7POPC   C1I  336   4.728   3.071   1.624
    7POPC   C1J  337   4.731   3.054   1.756
    7POPC   C1K  338   4.742   2.916   1.821
    7POPC   C1L  339   4.735   2.922   1.974
    7POPC   C1M  340   4.597   2.970   2.020
    7POPC   C1N  341   4.578   2.976   2.172
    7POPC   C1O  342   4.653   3.088   2.243
    7POPC   C1P  343   4.593   3.115   2.382
    7POPC   C1Q  344   4.595   2.993   2.473
    7POPC   C1R  345   4.529   3.020   2.608
    7POPC    CE  346   4.765   2.370   0.679
    7POPC    OG  347   4.762   2.258   0.767
    7POPC   C2A  348   4.741   2.293   0.894
    7POPC    OH  349   4.646   2.366   0.920
    7POPC   C2B  350   4.810   2.202   0.988
    7POPC   C2C  351   4.840   2.267   1.122
    7POPC   C2D  352   4.882   2.156   1.218
    7POPC   C2E  353   4.875   2.202   1.362
    7POPC   C2F  354   4.875   2.081   1.455
    7POPC   C2G  355   4.868   2.128   1.600
    7POPC   C2H  356   4.882   2.011   1.696
    7POPC   C2I  357   4.917   2.068   1.833
    7POPC   C2J  358   4.953   1.959   1.934
    7POPC   C2K  359   5.019   2.027   2.054
    7POPC   C2L  360   5.047   1.930   2.168
    7POPC   C2M  361   5.112   2.008   2.282
    7POPC   C2N  362   5.112   1.927   2.412
    7POPC   C2O  363   5.168   2.013   2.526
    7POPC   C2P  364   5.159   1.939   2.660
    8POPC   CN1  365   1.504   4.560   0.094
    8POPC   CN2  366   1.606   4.585   0.313
    8POPC   CN3  367   1.582   4.774   0.179
    8POPC   NTM  368   1.607   4.630   0.172
    8POPC    CA  369   1.731   4.602   0.096
    8POPC    CB  370   1.868   4.636   0.157
    8POPC    OA  371   1.890   4.554   0.270
    8POPC     P  372   1.996   4.611   0.373
    8POPC    OB  373   1.921   4.737   0.390
    8POPC    OC  374   2.099   4.597   0.269
    8POPC    OD  375   1.948   4.483   0.450
    8POPC    CC  376   1.938   4.511   0.591
    8POPC    CD  377   1.794   4.496   0.641
    8POPC    OE  378   1.753   4.590   0.742
    8POPC   C1A  379   1.622   4.618   0.745
    8POPC    OF  380   1.564   4.622   0.635
    8POPC   C1B  381   1.565   4.659   0.877
    8POPC   C1C  382   1.632   4.596   1.000
    8POPC   C1D  383   1.538   4.573   1.119
    8POPC   C1E  384   1.502   4.698   1.199
    8POPC   C1F  385   1.440   4.655   1.331
    8POPC   C1G  386   1.402   4.771   1.424
    8POPC   C1H  387   1.349   4.714   1.556
    8POPC   C1I  388   1.297   4.824   1.649
    8POPC   C1J  389   1.306   4.813   1.781
    8POPC   C1K  390   1.363   4.688   1.848
    8POPC   C1L  391   1.341   4.682   2.000
    8POPC   C1M  392   1.194   4.702   2.042
    8POPC   C1N  393   1.163   4.658   2.185
    8POPC   C1O  394   1.241   4.735   2.291
    8POPC   C1P  395   1.192   4.704   2.433
    8POPC   C1Q  396   1.220   4.560   2.475
    8POPC   C1R  397   1.166   4.534   2.616
    8POPC    CE  398   1.761   4.346   0.662
    8POPC    OG  399   1.841   4.262   0.745
    8POPC   C2A  400   1.800   4.251   0.872
    8POPC    OH  401   1.694   4.303   0.907
    8POPC   C2B  402   1.875   4.153   0.954
    8POPC   C2C  403   1.884   4.192   1.102
    8POPC   C2D  404   1.903   4.071   1.195
    8POPC   C2E  405   1.933   4.119   1.338
    8POPC   C2F  406   1.908   4.015   1.449
    8POPC   C2G  407   1.952   4.075   1.584
    8POPC   C2H  408   1.916   3.987   1.705
    8POPC   C2I  409   1.961   4.056   1.835
    8POPC   C2J  410   1.901   3.989   1.959
    8POPC   C2K  411   1.931   4.061   2.091
    8POPC   C2L  412   2.052   4.001   2.164
    8POPC   C2M  413   2.065   4.051   2.308
    8POPC   C2N  414   2.187   3.988   2.376
    8POPC   C2O  415   2.203   4.037   2.520
    8POPC   C2P  416   2.325   3.974   2.587
    9POPC   CN1  417   1.598   0.833   0.431
    9POPC   CN2  418   1.368   0.850   0.403
    9POPC   CN3  419   1.505   0.840   0.209
    9POPC   NTM  420   1.496   0.893   0.345
    9POPC    CA  421   1.514   1.040   0.354
    9POPC    CB  422   1.425   1.136   0.271
    9POPC    OA  423   1.288   1.113   0.298
    9POPC     P  424   1.219   1.243   0.358
    9POPC    OB  425   1.097   1.182   0.411
    9POPC    OC  426   1.213   1.321   0.233
    9POPC    OD  427   1.318   1.289   0.470
    9POPC    CC  428   1.282   1.258   0.605
    9POPC    CD  429   1.352   1.137   0.671
    9POPC    OE  430   1.263   1.056   0.751
    9POPC   C1A  431   1.286   0.926   0.771
    9POPC    OF  432   1.348   0.866   0.682
    9POPC   C1B  433   1.205   0.867   0.881
    9POPC   C1C  434   1.256   0.729   0.927
    9POPC   C1D  435   1.228   0.701   1.075
    9POPC   C1E  436   1.286   0.564   1.115
    9POPC   C1F  437   1.391   0.567   1.227
    9POPC   C1G  438   1.332   0.560   1.368
    9POPC   C1H  439   1.439   0.560   1.478
    9POPC   C1I  440   1.375   0.508   1.608
    9POPC   C1J  441   1.407   0.530   1.735
    9POPC   C1K  442   1.519   0.616   1.795
    9POPC   C1L  443   1.553   0.559   1.934
    9POPC   C1M  444   1.617   0.661   2.029
    9POPC   C1N  445   1.652   0.600   2.166
    9POPC   C1O  446   1.531   0.540   2.239
    9POPC   C1P  447   1.559   0.489   2.380
    9POPC   C1Q  448   1.587   0.601   2.481
    9POPC   C1R  449   1.589   0.544   2.624
    9POPC    CE  450   1.479   1.193   0.737
    9POPC    OG  451   1.457   1.291   0.840
    9POPC   C2A  452   1.463   1.246   0.965
    9POPC    OH  453   1.498   1.131   0.988
    9POPC   C2B  454   1.435   1.349   1.067
    9POPC   C2C  455   1.383   1.287   1.197
    9POPC   C2D  456   1.354   1.395   1.302
    9POPC   C2E  457   1.314   1.331   1.435
    9POPC   C2F  458   1.291   1.438   1.543
    9POPC   C2G  459   1.261   1.371   1.677
    9POPC   C2H  460   1.245   1.470   1.792
    9POPC   C2I  461   1.189   1.392   1.911
    9POPC   C2J  462   1.155   1.475   2.035
    9POPC   C2K  463   1.074   1.383   2.126
    9POPC   C2L  464   1.034   1.440   2.262
    9POPC   C2M  465   0.938   1.340   2.328
    9POPC   C2N  466   0.896   1.380   2.469
    9POPC   C2O  467   0.793   1.280   2.522
    9POPC   C2P  468   0.750   1.314   2.665
   10POPC   CN1  469   0.858   5.645   0.295
   10POPC   CN2  470   0.862   5.807   0.466
   10POPC   CN3  471   0.683   5.805   0.316
   10POPC   NTM  472   0.829   5.786   0.325
   10POPC    CA  473   0.894   5.878   0.228
   10POPC    CB  474   0.974   6.004   0.267
   10POPC    OA  475   1.094   5.984   0.342
   10POPC     P  476   1.156   6.126   0.378
   10POPC    OB  477   1.043   6.213   0.406
   10POPC    OC  478   1.238   6.136   0.253
   10POPC    OD  479   1.246   6.082   0.497
   10POPC    CC  480   1.206   5.993   0.603
   10POPC    CD  481   1.086   5.985   0.699
   10POPC    OE  482   1.075   6.089   0.796
   10POPC   C1A  483   0.961   6.091   0.866
   10POPC    OF  484   0.869   6.016   0.834
   10POPC   C1B  485   0.962   6.186   0.978
   10POPC   C1C  486   0.837   6.168   1.063
   10POPC   C1D  487   0.862   6.097   1.196
   10POPC   C1E  488   0.740   6.127   1.281
   10POPC   C1F  489   0.756   6.083   1.426
   10POPC   C1G  490   0.639   6.141   1.505
   10POPC   C1H  491   0.646   6.099   1.651
   10POPC   C1I  492   0.537   6.168   1.732
   10POPC   C1J  493   0.563   6.199   1.859
   10POPC   C1K  494   0.702   6.162   1.911
   10POPC   C1L  495   0.705   6.138   2.062
   10POPC   C1M  496   0.643   6.005   2.107
   10POPC   C1N  497   0.680   5.971   2.252
   10POPC   C1O  498   0.640   6.081   2.351
   10POPC   C1P  499   0.660   6.041   2.497
   10POPC   C1Q  500   0.807   6.020   2.535
   10POPC   C1R  501   0.821   5.988   2.684
   10POPC    CE  502   1.093   5.842   0.760
   10POPC    OG  503   1.186   5.812   0.864
   10POPC   C2A  504   1.131   5.787   0.984
   10POPC    OH  505   1.017   5.743   0.990
   10POPC   C2B  506   1.231   5.780   1.094
   10POPC   C2C  507   1.181   5.786   1.240
   10POPC   C2D  508   1.302   5.771   1.333
   10POPC   C2E  509   1.275   5.768   1.485
   10POPC   C2F  510   1.408   5.755   1.561
   10POPC   C2G  511   1.398   5.741   1.714
   10POPC   C2H  512   1.539   5.736   1.775
   10POPC   C2I  513   1.547   5.726   1.928
   10POPC   C2J  514   1.688   5.764   1.977
   10POPC   C2K  515   1.701   5.796   2.127
   10POPC   C2L  516   1.828   5.878   2.154
   10POPC   C2M  517   1.816   6.009   2.233
   10POPC   C2N  518   1.878   6.003   2.373
   10POPC   C2O  519   1.875   6.139   2.442
   10POPC   C2P  520   1.938   6.134   2.581
   11POPC   CN1  521   1.389   3.516   0.068
   11POPC   CN2  522   1.310   3.422   0.275
   11POPC   CN3  523   1.234   3.334   0.066
   11POPC   NTM  524   1.274   3.457   0.136
   11POPC    CA  525   1.167   3.560   0.127
   11POPC    CB  526   1.032   3.541   0.200
   11POPC    OA  527   1.054   3.522   0.338
   11POPC     P  528   0.927   3.485   0.422
   11POPC    OB  529   0.878   3.373   0.340
   11POPC    OC  530   0.853   3.611   0.433
   11POPC    OD  531   1.017   3.449   0.545
   11POPC    CC  532   1.082   3.557   0.613
   11POPC    CD  533   1.203   3.508   0.694
   11POPC    OE  534   1.162   3.419   0.799
   11POPC   C1A  535   1.233   3.308   0.816
   11POPC    OF  536   1.329   3.281   0.744
   11POPC   C1B  537   1.167   3.225   0.919
   11POPC   C1C  538   1.262   3.164   1.022
   11POPC   C1D  539   1.339   3.263   1.109
   11POPC   C1E  540   1.398   3.178   1.220
   11POPC   C1F  541   1.506   3.241   1.307
   11POPC   C1G  542   1.560   3.130   1.396
   11POPC   C1H  543   1.655   3.181   1.503
   11POPC   C1I  544   1.717   3.061   1.573
   11POPC   C1J  545   1.717   3.043   1.705
   11POPC   C1K  546   1.641   3.138   1.795
   11POPC   C1L  547   1.691   3.151   1.940
   11POPC   C1M  548   1.825   3.224   1.953
   11POPC   C1N  549   1.841   3.297   2.087
   11POPC   C1O  550   1.792   3.227   2.215
   11POPC   C1P  551   1.836   3.309   2.336
   11POPC   C1Q  552   1.771   3.264   2.467
   11POPC   C1R  553   1.825   3.345   2.585
   11POPC    CE  554   1.290   3.625   0.743
   11POPC    OG  555   1.234   3.717   0.838
   11POPC   C2A  556   1.271   3.700   0.966
   11POPC    OH  557   1.354   3.616   0.998
   11POPC   C2B  558   1.209   3.800   1.057
   11POPC   C2C  559   1.265   3.799   1.200
   11POPC   C2D  560   1.180   3.892   1.287
   11POPC   C2E  561   1.222   3.898   1.434
   11POPC   C2F  562   1.113   3.972   1.512
   11POPC   C2G  563   1.135   3.973   1.663
   11POPC   C2H  564   1.011   4.017   1.742
   11POPC   C2I  565   1.027   3.980   1.890
   11POPC   C2J  566   0.905   4.000   1.980
   11POPC   C2K  567   0.933   3.927   2.112
   11POPC   C2L  568   0.825   3.949   2.219
   11POPC   C2M  569   0.863   3.873   2.346
   11POPC   C2N  570   0.770   3.908   2.462
   11POPC   C2O  571   0.815   3.839   2.591
   11POPC   C2P  572   0.728   3.883   2.709
   12POPC   CN1  573   0.281   1.663   0.316
   12POPC   CN2  574   0.209   1.836   0.456
   12POPC   CN3  575   0.099   1.808   0.250
   12POPC   NTM  576   0.231   1.801   0.315
   12POPC    CA  577   0.330   1.889   0.248
   12POPC    CB  578   0.304   2.041   0.234
   12POPC    OA  579   0.297   2.102   0.361
   12POPC     P  580   0.224   2.243   0.357
   12POPC    OB  581   0.102   2.202   0.283
   12POPC    OC  582   0.334   2.309   0.289
   12POPC    OD  583   0.204   2.261   0.511
   12POPC    CC  584   0.314   2.243   0.603
   12POPC    CD  585   0.302   2.111   0.683
   12POPC    OE  586   0.209   2.117   0.792
   12POPC   C1A  587   0.123   2.017   0.805
   12POPC    OF  588   0.122   1.925   0.722
   12POPC   C1B  589   0.025   2.042   0.912
   12POPC   C1C  590   0.003   1.921   1.003
   12POPC   C1D  591   0.116   1.893   1.102
   12POPC   C1E  592   0.066   1.785   1.198
   12POPC   C1F  593   0.147   1.767   1.327
   12POPC   C1G  594   0.065   1.676   1.419
   12POPC   C1H  595   0.121   1.662   1.560
   12POPC   C1I  596   0.026   1.574   1.643
   12POPC   C1J  597   0.013   1.590   1.775
   12POPC   C1K  598   0.096   1.696   1.847
   12POPC   C1L  599   0.087   1.690   2.000
   12POPC   C1M  600   0.163   1.572   2.061
   12POPC   C1N  601   0.187   1.587   2.212
   12POPC   C1O  602   0.058   1.599   2.294
   12POPC   C1P  603   0.080   1.583   2.445
   12POPC   C1Q  604   0.172   1.689   2.506
   12POPC   C1R  605   0.179   1.675   2.658
   12POPC    CE  606   0.440   2.046   0.709
   12POPC    OG  607   0.543   2.094   0.797
   12POPC   C2A  608   0.535   2.051   0.924
   12POPC    OH  609   0.487   1.939   0.942
   12POPC   C2B  610   0.626   2.119   1.019
   12POPC   C2C  611   0.576   2.112   1.165
   12POPC   C2D  612   0.663   2.194   1.262
   12POPC   C2E  613   0.601   2.205   1.402
   12POPC   C2F  614   0.682   2.294   1.496
   12POPC   C2G  615   0.610   2.321   1.628
   12POPC   C2H  616   0.697   2.402   1.725
   12POPC   C2I  617   0.617   2.446   1.848
   12POPC   C2J  618   0.700   2.522   1.953
   12POPC   C2K  619   0.604   2.582   2.056
   12POPC   C2L  620   0.665   2.647   2.180
   12POPC   C2M  621   0.549   2.696   2.267
   12POPC   C2N  622   0.589   2.753   2.403
   12POPC   C2O  623   0.463   2.792   2.481
   12POPC   C2P  624   0.495   2.849   2.619
   13POPC   CN1  625   1.324   2.130   0.361
   13POPC   CN2  626   1.176   2.291   0.445
   13POPC   CN3  627   1.136   2.196   0.226
   13POPC   NTM  628   1.237   2.241   0.321
   13POPC    CA  629   1.325   2.340   0.253
   13POPC    CB  630   1.297   2.491   0.239
   13POPC    OA  631   1.280   2.554   0.363
   13POPC     P  632   1.271   2.710   0.354
   13POPC    OB  633   1.168   2.721   0.250
   13POPC    OC  634   1.410   2.748   0.319
   13POPC    OD  635   1.226   2.737   0.503
   13POPC    CC  636   1.305   2.691   0.613
   13POPC    CD  637   1.261   2.558   0.679
   13POPC    OE  638   1.153   2.569   0.773
   13POPC   C1A  639   1.096   2.455   0.809
   13POPC    OF  640   1.075   2.367   0.725
   13POPC   C1B  641   1.069   2.456   0.954
   13POPC   C1C  642   1.079   2.319   1.019
   13POPC   C1D  643   1.088   2.337   1.170
   13POPC   C1E  644   1.064   2.203   1.240
   13POPC   C1F  645   1.086   2.216   1.390
   13POPC   C1G  646   1.023   2.096   1.460
   13POPC   C1H  647   1.047   2.104   1.611
   13POPC   C1I  648   0.934   2.035   1.686
   13POPC   C1J  649   0.910   2.075   1.811
   13POPC   C1K  650   1.001   2.183   1.871
   13POPC   C1L  651   1.020   2.168   2.022
   13POPC   C1M  652   1.082   2.033   2.060
   13POPC   C1N  653   1.113   2.021   2.209
   13POPC   C1O  654   0.992   2.039   2.301
   13POPC   C1P  655   1.020   1.989   2.443
   13POPC   C1Q  656   1.139   2.060   2.509
   13POPC   C1R  657   1.166   2.005   2.649
   13POPC    CE  658   1.382   2.482   0.740
   13POPC    OG  659   1.454   2.536   0.852
   13POPC   C2A  660   1.481   2.450   0.950
   13POPC    OH  661   1.422   2.342   0.957
   13POPC   C2B  662   1.579   2.501   1.050
   13POPC   C2C  663   1.548   2.462   1.195
   13POPC   C2D  664   1.642   2.535   1.291
   13POPC   C2E  665   1.596   2.520   1.436
   13POPC   C2F  666   1.666   2.619   1.530
   13POPC   C2G  667   1.599   2.613   1.667
   13POPC   C2H  668   1.659   2.710   1.769
   13POPC   C2I  669   1.569   2.716   1.893
   13POPC   C2J  670   1.626   2.801   2.007
   13POPC   C2K  671   1.512   2.838   2.103
   13POPC   C2L  672   1.563   2.913   2.226
   13POPC   C2M  673   1.445   2.959   2.312
   13POPC   C2N  674   1.495   3.014   2.446
   13POPC   C2O  675   1.379   3.056   2.536
   13POPC   C2P  676   1.431   3.102   2.672
   14POPC   CN1  677   4.726   3.691   0.280
   14POPC   CN2  678   4.925   3.696   0.400
   14POPC   CN3  679   4.937   3.724   0.167
   14POPC   NTM  680   4.866   3.652   0.273
   14POPC    CA  681   4.871   3.505   0.253
   14POPC    CB  682   5.006   3.431   0.241
   14POPC    OA  683   5.079   3.458   0.358
   14POPC     P  684   5.229   3.410   0.360
   14POPC    OB  685   5.251   3.510   0.251
   14POPC    OC  686   5.195   3.270   0.336
   14POPC    OD  687   5.235   3.463   0.509
   14POPC    CC  688   5.162   3.388   0.608
   14POPC    CD  689   5.044   3.470   0.667
   14POPC    OE  690   5.088   3.579   0.753
   14POPC   C1A  691   5.012   3.686   0.774
   14POPC    OF  692   4.928   3.719   0.689
   14POPC   C1B  693   5.069   3.770   0.881
   14POPC   C1C  694   4.965   3.848   0.962
   14POPC   C1D  695   5.026   3.880   1.099
   14POPC   C1E  696   4.937   3.975   1.179
   14POPC   C1F  697   4.971   3.967   1.328
   14POPC   C1G  698   4.878   4.058   1.408
   14POPC   C1H  699   4.878   4.019   1.556
   14POPC   C1I  700   4.772   4.099   1.630
   14POPC   C1J  701   4.762   4.095   1.762
   14POPC   C1K  702   4.852   4.002   1.845
   14POPC   C1L  703   4.819   4.005   1.995
   14POPC   C1M  704   4.670   3.982   2.027
   14POPC   C1N  705   4.642   3.962   2.176
   14POPC   C1O  706   4.678   4.083   2.262
   14POPC   C1P  707   4.640   4.063   2.409
   14POPC   C1Q  708   4.717   3.949   2.475
   14POPC   C1R  709   4.673   3.931   2.621
   14POPC    CE  710   4.943   3.372   0.728
   14POPC    OG  711   4.983   3.310   0.850
   14POPC   C2A  712   4.968   3.381   0.961
   14POPC    OH  713   4.884   3.472   0.968
   14POPC   C2B  714   5.037   3.317   1.074
   14POPC   C2C  715   4.993   3.369   1.211
   14POPC   C2D  716   5.054   3.279   1.317
   14POPC   C2E  717   5.012   3.322   1.456
   14POPC   C2F  718   5.076   3.227   1.557
   14POPC   C2G  719   5.049   3.275   1.699
   14POPC   C2H  720   5.122   3.184   1.796
   14POPC   C2I  721   5.129   3.252   1.932
   14POPC   C2J  722   5.221   3.172   2.023
   14POPC   C2K  723   5.249   3.247   2.153
   14POPC   C2L  724   5.337   3.161   2.243
   14POPC   C2M  725   5.377   3.238   2.368
   14POPC   C2N  726   5.460   3.149   2.460
   14POPC   C2O  727   5.507   3.227   2.583
   14POPC   C2P  728   5.587   3.137   2.677
   15POPC   CN1  729   0.427   3.666   0.282
   15POPC   CN2  730   0.479   3.836   0.435
   15POPC   CN3  731   0.450   3.893   0.206
   15POPC   NTM  732   0.502   3.791   0.297
   15POPC    CA  733   0.646   3.757   0.277
   15POPC    CB  734   0.750   3.866   0.244
   15POPC    OA  735   0.722   3.990   0.309
   15POPC     P  736   0.849   4.070   0.359
   15POPC    OB  737   0.806   4.210   0.345
   15POPC    OC  738   0.958   4.032   0.267
   15POPC    OD  739   0.857   4.031   0.514
   15POPC    CC  740   0.855   3.898   0.572
   15POPC    CD  741   0.747   3.864   0.679
   15POPC    OE  742   0.722   3.965   0.780
   15POPC   C1A  743   0.595   3.983   0.816
   15POPC    OF  744   0.505   3.941   0.742
   15POPC   C1B  745   0.579   4.079   0.927
   15POPC   C1C  746   0.461   4.053   1.023
   15POPC   C1D  747   0.479   3.936   1.121
   15POPC   C1E  748   0.377   3.950   1.235
   15POPC   C1F  749   0.393   3.847   1.348
   15POPC   C1G  750   0.300   3.881   1.465
   15POPC   C1H  751   0.322   3.794   1.589
   15POPC   C1I  752   0.217   3.823   1.697
   15POPC   C1J  753   0.243   3.872   1.818
   15POPC   C1K  754   0.385   3.905   1.867
   15POPC   C1L  755   0.403   3.904   2.020
   15POPC   C1M  756   0.371   3.768   2.082
   15POPC   C1N  757   0.425   3.744   2.224
   15POPC   C1O  758   0.373   3.841   2.331
   15POPC   C1P  759   0.341   3.771   2.464
   15POPC   C1Q  760   0.455   3.685   2.520
   15POPC   C1R  761   0.416   3.622   2.654
   15POPC    CE  762   0.766   3.720   0.734
   15POPC    OG  763   0.868   3.688   0.832
   15POPC   C2A  764   0.824   3.625   0.942
   15POPC    OH  765   0.703   3.615   0.964
   15POPC   C2B  766   0.930   3.573   1.032
   15POPC   C2C  767   0.892   3.573   1.182
   15POPC   C2D  768   1.008   3.527   1.271
   15POPC   C2E  769   0.977   3.544   1.421
   15POPC   C2F  770   1.105   3.537   1.506
   15POPC   C2G  771   1.078   3.569   1.654
   15POPC   C2H  772   1.203   3.631   1.718
   15POPC   C2I  773   1.191   3.667   1.866
   15POPC   C2J  774   1.309   3.753   1.914
   15POPC   C2K  775   1.294   3.786   2.063
   15POPC   C2L  776   1.424   3.827   2.133
   15POPC   C2M  777   1.391   3.848   2.281
   15POPC   C2N  778   1.510   3.875   2.372
   15POPC   C2O  779   1.458   3.895   2.515
   15POPC   C2P  780   1.569   3.914   2.617
   16POPC   CN1  781   4.169   5.704   0.211
   16POPC   CN2  782   4.358   5.766   0.333
   16POPC   CN3  783   4.347   5.807   0.094
   16POPC   NTM  784   4.315   5.713   0.202
   16POPC    CA  785   4.372   5.579   0.176
   16POPC    CB  786   4.524   5.550   0.186
   16POPC    OA  787   4.580   5.584   0.311
   16POPC     P  788   4.734   5.556   0.328
   16POPC    OB  789   4.785   5.689   0.359
   16POPC    OC  790   4.773   5.486   0.204
   16POPC    OD  791   4.725   5.456   0.449
   16POPC    CC  792   4.756   5.513   0.577
   16POPC    CD  793   4.643   5.584   0.653
   16POPC    OE  794   4.682   5.651   0.777
   16POPC   C1A  795   4.611   5.759   0.811
   16POPC    OF  796   4.551   5.816   0.719
   16POPC   C1B  797   4.625   5.809   0.951
   16POPC   C1C  798   4.552   5.942   0.977
   16POPC   C1D  799   4.524   5.974   1.125
   16POPC   C1E  800   4.406   6.072   1.140
   16POPC   C1F  801   4.301   6.037   1.247
   16POPC   C1G  802   4.322   6.085   1.391
   16POPC   C1H  803   4.224   6.020   1.490
   16POPC   C1I  804   4.220   6.096   1.623
   16POPC   C1J  805   4.218   6.042   1.745
   16POPC   C1K  806   4.225   5.892   1.777
   16POPC   C1L  807   4.248   5.865   1.926
   16POPC   C1M  808   4.125   5.902   2.009
   16POPC   C1N  809   4.121   5.853   2.154
   16POPC   C1O  810   4.225   5.912   2.249
   16POPC   C1P  811   4.181   5.904   2.396
   16POPC   C1Q  812   4.157   5.762   2.446
   16POPC   C1R  813   4.127   5.760   2.596
   16POPC    CE  814   4.531   5.479   0.673
   16POPC    OG  815   4.567   5.365   0.754
   16POPC   C2A  816   4.561   5.388   0.885
   16POPC    OH  817   4.474   5.464   0.929
   16POPC   C2B  818   4.633   5.285   0.965
   16POPC   C2C  819   4.607   5.301   1.115
   16POPC   C2D  820   4.671   5.187   1.194
   16POPC   C2E  821   4.641   5.202   1.343
   16POPC   C2F  822   4.765   5.158   1.421
   16POPC   C2G  823   4.746   5.169   1.572
   16POPC   C2H  824   4.879   5.150   1.644
   16POPC   C2I  825   4.865   5.186   1.792
   16POPC   C2J  826   4.995   5.159   1.867
   16POPC   C2K  827   4.996   5.231   2.001
   16POPC   C2L  828   5.108   5.177   2.089
   16POPC   C2M  829   5.125   5.262   2.215
   16POPC   C2N  830   5.199   5.186   2.324
   16POPC   C2O  831   5.214   5.272   2.449
   16POPC   C2P  832   5.265   5.191   2.567
   17POPC   CN1  833   4.991   0.194   0.417
   17POPC   CN2  834   5.154   0.319   0.524
   17POPC   CN3  835   5.105   0.375   0.299
   17POPC   NTM  836   5.118   0.263   0.393
   17POPC    CA  837   5.218   0.164   0.346
   17POPC    CB  838   5.361   0.201   0.303
   17POPC    OA  839   5.426   0.266   0.410
   17POPC     P  840   5.570   0.320   0.378
   17POPC    OB  841   5.533   0.426   0.283
   17POPC    OC  842   5.640   0.199   0.332
   17POPC    OD  843   5.609   0.365   0.524
   17POPC    CC  844   5.600   0.269   0.630
   17POPC    CD  845   5.471   0.277   0.714
   17POPC    OE  846   5.473   0.378   0.818
   17POPC   C1A  847   5.359   0.443   0.843
   17POPC    OF  848   5.261   0.427   0.771
   17POPC   C1B  849   5.376   0.548   0.945
   17POPC   C1C  850   5.249   0.577   1.026
   17POPC   C1D  851   5.263   0.527   1.169
   17POPC   C1E  852   5.153   0.587   1.257
   17POPC   C1F  853   5.172   0.550   1.404
   17POPC   C1G  854   5.057   0.607   1.488
   17POPC   C1H  855   5.065   0.557   1.632
   17POPC   C1I  856   4.947   0.610   1.714
   17POPC   C1J  857   4.953   0.612   1.847
   17POPC   C1K  858   5.077   0.558   1.919
   17POPC   C1L  859   5.069   0.563   2.072
   17POPC   C1M  860   4.948   0.489   2.131
   17POPC   C1N  861   4.961   0.459   2.280
   17POPC   C1O  862   4.978   0.583   2.368
   17POPC   C1P  863   4.989   0.546   2.517
   17POPC   C1Q  864   5.117   0.469   2.550
   17POPC   C1R  865   5.121   0.432   2.698
   17POPC    CE  866   5.431   0.134   0.755
   17POPC    OG  867   5.517   0.069   0.850
   17POPC   C2A  868   5.473   0.070   0.976
   17POPC    OH  869   5.359   0.110   1.004
   17POPC   C2B  870   5.568   0.010   1.071
   17POPC   C2C  871   5.558   0.075   1.209
   17POPC   C2D  872   5.655   0.010   1.307
   17POPC   C2E  873   5.653   0.086   1.439
   17POPC   C2F  874   5.754   0.029   1.538
   17POPC   C2G  875   5.759   0.122   1.660
   17POPC   C2H  876   5.858   0.076   1.766
   17POPC   C2I  877   5.864   0.185   1.873
   17POPC   C2J  878   5.953   0.151   1.991
   17POPC   C2K  879   5.958   0.274   2.082
   17POPC   C2L  880   6.033   0.249   2.213
   17POPC   C2M  881   6.046   0.381   2.289
   17POPC   C2N  882   6.117   0.360   2.422
   17POPC   C2O  883   6.157   0.494   2.485
   17POPC   C2P  884   6.242   0.471   2.610
   18POPC   CN1  885   3.482   5.111   0.179
   18POPC   CN2  886   3.376   5.051   0.381
   18POPC   CN3  887   3.334   4.926   0.182
   18POPC   NTM  888   3.357   5.061   0.235
   18POPC    CA  889   3.249   5.155   0.197
   18POPC    CB  890   3.099   5.122   0.220
   18POPC    OA  891   3.061   5.113   0.356
   18POPC     P  892   2.989   4.977   0.391
   18POPC    OB  893   3.096   4.879   0.397
   18POPC    OC  894   2.892   4.968   0.280
   18POPC    OD  895   2.918   5.018   0.526
   18POPC    CC  896   2.987   5.096   0.626
   18POPC    CD  897   3.131   5.064   0.669
   18POPC    OE  898   3.142   4.954   0.762
   18POPC   C1A  899   3.260   4.893   0.772
   18POPC    OF  900   3.348   4.917   0.687
   18POPC   C1B  901   3.257   4.783   0.871
   18POPC   C1C  902   3.386   4.761   0.949
   18POPC   C1D  903   3.406   4.859   1.065
   18POPC   C1E  904   3.527   4.811   1.147
   18POPC   C1F  905   3.549   4.889   1.276
   18POPC   C1G  906   3.661   4.820   1.354
   18POPC   C1H  907   3.688   4.883   1.490
   18POPC   C1I  908   3.798   4.802   1.559
   18POPC   C1J  909   3.807   4.791   1.691
   18POPC   C1K  910   3.711   4.862   1.786
   18POPC   C1L  911   3.735   4.827   1.934
   18POPC   C1M  912   3.882   4.843   1.978
   18POPC   C1N  913   3.913   4.808   2.125
   18POPC   C1O  914   3.825   4.882   2.226
   18POPC   C1P  915   3.872   4.857   2.370
   18POPC   C1Q  916   3.789   4.940   2.468
   18POPC   C1R  917   3.840   4.922   2.611
   18POPC    CE  918   3.195   5.197   0.712
   18POPC    OG  919   3.141   5.260   0.828
   18POPC   C2A  920   3.207   5.235   0.941
   18POPC    OH  921   3.322   5.190   0.939
   18POPC   C2B  922   3.140   5.289   1.061
   18POPC   C2C  923   3.159   5.201   1.184
   18POPC   C2D  924   3.094   5.269   1.305
   18POPC   C2E  925   3.110   5.190   1.434
   18POPC   C2F  926   3.034   5.261   1.545
   18POPC   C2G  927   3.048   5.187   1.678
   18POPC   C2H  928   2.957   5.248   1.784
   18POPC   C2I  929   2.971   5.171   1.915
   18POPC   C2J  930   2.870   5.216   2.019
   18POPC   C2K  931   2.883   5.130   2.145
   18POPC   C2L  932   2.774   5.160   2.247
   18POPC   C2M  933   2.792   5.072   2.370
   18POPC   C2N  934   2.680   5.094   2.472
   18POPC   C2O  935   2.701   5.004   2.594
   18POPC   C2P  936   2.586   5.019   2.693
   19POPC   CN1  937   3.132   6.008   0.353
   19POPC   CN2  938   3.343   5.998   0.461
   19POPC   CN3  939   3.332   6.006   0.220
   19POPC   NTM  940   3.268   5.953   0.342
   19POPC    CA  941   3.257   5.805   0.345
   19POPC    CB  942   3.376   5.717   0.299
   19POPC    OA  943   3.502   5.760   0.348
   19POPC     P  944   3.612   5.648   0.343
   19POPC    OB  945   3.744   5.711   0.358
   19POPC    OC  946   3.585   5.573   0.219
   19POPC    OD  947   3.564   5.557   0.462
   19POPC    CC  948   3.613   5.597   0.592
   19POPC    CD  949   3.526   5.692   0.676
   19POPC    OE  950   3.606   5.767   0.771
   19POPC   C1A  951   3.567   5.889   0.806
   19POPC    OF  952   3.490   5.949   0.730
   19POPC   C1B  953   3.659   5.949   0.906
   19POPC   C1C  954   3.594   6.040   1.011
   19POPC   C1D  955   3.536   5.967   1.132
   19POPC   C1E  956   3.496   6.072   1.236
   19POPC   C1F  957   3.445   6.015   1.369
   19POPC   C1G  958   3.414   6.132   1.462
   19POPC   C1H  959   3.370   6.089   1.602
   19POPC   C1I  960   3.341   6.213   1.688
   19POPC   C1J  961   3.370   6.215   1.818
   19POPC   C1K  962   3.431   6.091   1.883
   19POPC   C1L  963   3.443   6.100   2.036
   19POPC   C1M  964   3.306   6.103   2.104
   19POPC   C1N  965   3.310   6.058   2.250
   19POPC   C1O  966   3.385   6.149   2.347
   19POPC   C1P  967   3.334   6.133   2.491
   19POPC   C1Q  968   3.341   5.989   2.544
   19POPC   C1R  969   3.280   5.977   2.683
   19POPC    CE  970   3.408   5.610   0.734
   19POPC    OG  971   3.441   5.512   0.833
   19POPC   C2A  972   3.431   5.553   0.959
   19POPC    OH  973   3.359   5.649   0.987
   19POPC   C2B  974   3.493   5.459   1.057
   19POPC   C2C  975   3.443   5.478   1.200
   19POPC   C2D  976   3.504   5.371   1.292
   19POPC   C2E  977   3.464   5.389   1.438
   19POPC   C2F  978   3.539   5.287   1.523
   19POPC   C2G  979   3.530   5.313   1.673
   19POPC   C2H  980   3.642   5.230   1.737
   19POPC   C2I  981   3.670   5.254   1.885
   19POPC   C2J  982   3.809   5.196   1.909
   19POPC   C2K  983   3.863   5.201   2.052
   19POPC   C2L  984   4.011   5.160   2.052
   19POPC   C2M  985   4.097   5.208   2.169
   19POPC   C2N  986   4.069   5.150   2.307
   19POPC   C2O  987   4.168   5.206   2.409
   19POPC   C2P  988   4.144   5.150   2.549
   20POPC   CN1  989   0.111   6.119   0.372
   20POPC   CN2  990   0.282   6.250   0.470
   20POPC   CN3  991   0.186   6.318   0.265
   20POPC   NTM  992   0.229   6.200   0.342
   20POPC    CA  993   0.323   6.122   0.259
   20POPC    CB  994   0.471   6.163   0.248
   20POPC    OA  995   0.551   6.097   0.345
   20POPC     P  996   0.680   6.180   0.382
   20POPC    OB  997   0.609   6.299   0.428
   20POPC    OC  998   0.735   6.158   0.246
   20POPC    OD  999   0.704   6.061   0.482
   20POPC    CC 1000   0.682   6.097   0.619
   20POPC    CD 1001   0.543   6.079   0.682
   20POPC    OE 1002   0.538   6.141   0.811
   20POPC   C1A 1003   0.427   6.205   0.847
   20POPC    OF 1004   0.326   6.200   0.775
   20POPC   C1B 1005   0.452   6.288   0.967
   20POPC   C1C 1006   0.335   6.308   1.062
   20POPC   C1D 1007   0.319   6.192   1.160
   20POPC   C1E 1008   0.216   6.237   1.264
   20POPC   C1F 1009   0.196   6.136   1.377
   20POPC   C1G 1010   0.100   6.200   1.478
   20POPC   C1H 1011   0.079   6.112   1.601
   20POPC   C1I 1012  -0.002   6.189   1.705
   20POPC   C1J 1013   0.034   6.182   1.833
   20POPC   C1K 1014   0.153   6.094   1.872
   20POPC   C1L 1015   0.146   6.042   2.016
   20POPC   C1M 1016   0.024   5.952   2.041
   20POPC   C1N 1017   0.021   5.895   2.183
   20POPC   C1O 1018   0.014   6.005   2.290
   20POPC   C1P 1019   0.002   5.948   2.432
   20POPC   C1Q 1020   0.123   5.864   2.474
   20POPC   C1R 1021   0.102   5.804   2.613
   20POPC    CE 1022   0.499   5.931   0.675
   20POPC    OG 1023   0.573   5.833   0.749
   20POPC   C2A 1024   0.524   5.806   0.871
   20POPC    OH 1025   0.402   5.811   0.888
   20POPC   C2B 1026   0.618   5.731   0.957
   20POPC   C2C 1027   0.593   5.756   1.106
   20POPC   C2D 1028   0.695   5.682   1.194
   20POPC   C2E 1029   0.666   5.707   1.342
   20POPC   C2F 1030   0.776   5.652   1.434
   20POPC   C2G 1031   0.748   5.691   1.579
   20POPC   C2H 1032   0.865   5.655   1.670
   20POPC   C2I 1033   0.842   5.704   1.813
   20POPC   C2J 1034   0.964   5.672   1.900
   20POPC   C2K 1035   0.945   5.718   2.045
   20POPC   C2L 1036   1.064   5.674   2.131
   20POPC   C2M 1037   1.047   5.723   2.275
   20POPC   C2N 1038   1.156   5.668   2.366
   20POPC   C2O 1039   1.136   5.717   2.509
   20POPC   C2P 1040   1.235   5.651   2.604
   21POPC   CN1 1041   3.690   3.761   0.220
   21POPC   CN2 1042   3.633   3.895   0.407
   21POPC   CN3 1043   3.512   3.926   0.205
   21POPC   NTM 1044   3.645   3.894   0.259
   21POPC    CA 1045   3.751   3.989   0.215
   21POPC    CB 1046   3.724   4.141   0.208
   21POPC    OA 1047   3.658   4.185   0.324
   21POPC     P 1048   3.595   4.328   0.314
   21POPC    OB 1049   3.480   4.292   0.228
   21POPC    OC 1050   3.699   4.410   0.251
   21POPC    OD 1051   3.561   4.355   0.465
   21POPC    CC 1052   3.659   4.327   0.567
   21POPC    CD 1053   3.641   4.192   0.641
   21POPC    OE 1054   3.536   4.187   0.741
   21POPC   C1A 1055   3.482   4.069   0.769
   21POPC    OF 1056   3.498   3.974   0.691
   21POPC   C1B 1057   3.381   4.079   0.877
   21POPC   C1C 1058   3.378   3.962   0.976
   21POPC   C1D 1059   3.465   3.980   1.101
   21POPC   C1E 1060   3.430   3.867   1.198
   21POPC   C1F 1061   3.494   3.868   1.337
   21POPC   C1G 1062   3.443   3.742   1.408
   21POPC   C1H 1063   3.469   3.729   1.558
   21POPC   C1I 1064   3.403   3.600   1.608
   21POPC   C1J 1065   3.408   3.560   1.735
   21POPC   C1K 1066   3.482   3.646   1.838
   21POPC   C1L 1067   3.498   3.584   1.977
   21POPC   C1M 1068   3.603   3.472   1.986
   21POPC   C1N 1069   3.683   3.467   2.117
   21POPC   C1O 1070   3.600   3.490   2.244
   21POPC   C1P 1071   3.685   3.477   2.370
   21POPC   C1Q 1072   3.603   3.517   2.493
   21POPC   C1R 1073   3.681   3.493   2.623
   21POPC    CE 1074   3.779   4.145   0.690
   21POPC    OG 1075   3.856   4.226   0.780
   21POPC   C2A 1076   3.886   4.169   0.897
   21POPC    OH 1077   3.870   4.049   0.915
   21POPC   C2B 1078   3.960   4.258   0.989
   21POPC   C2C 1079   3.896   4.254   1.128
   21POPC   C2D 1080   3.973   4.336   1.231
   21POPC   C2E 1081   3.890   4.338   1.358
   21POPC   C2F 1082   3.957   4.406   1.477
   21POPC   C2G 1083   3.855   4.400   1.590
   21POPC   C2H 1084   3.904   4.447   1.727
   21POPC   C2I 1085   3.782   4.440   1.819
   21POPC   C2J 1086   3.811   4.479   1.963
   21POPC   C2K 1087   3.680   4.489   2.042
   21POPC   C2L 1088   3.707   4.530   2.187
   21POPC   C2M 1089   3.580   4.567   2.263
   21POPC   C2N 1090   3.616   4.597   2.409
   21POPC   C2O 1091   3.496   4.648   2.489
   21POPC   C2P 1092   3.535   4.674   2.634
   22POPC   CN1 1093   4.230   3.462   0.472
   22POPC   CN2 1094   4.018   3.557   0.446
   22POPC   CN3 1095   4.135   3.493   0.250
   22POPC   NTM 1096   4.151   3.548   0.384
   22POPC    CA 1097   4.226   3.675   0.380
   22POPC    CB 1098   4.172   3.793   0.295
   22POPC    OA 1099   4.048   3.843   0.342
   22POPC     P 1100   4.071   3.978   0.424
   22POPC    OB 1101   3.937   4.030   0.446
   22POPC    OC 1102   4.170   4.050   0.343
   22POPC    OD 1103   4.138   3.914   0.551
   22POPC    CC 1104   4.053   3.919   0.666
   22POPC    CD 1105   4.002   3.783   0.716
   22POPC    OE 1106   3.869   3.785   0.772
   22POPC   C1A 1107   3.774   3.697   0.739
   22POPC    OF 1108   3.779   3.646   0.625
   22POPC   C1B 1109   3.657   3.709   0.830
   22POPC   C1C 1110   3.582   3.581   0.871
   22POPC   C1D 1111   3.556   3.579   1.023
   22POPC   C1E 1112   3.482   3.457   1.080
   22POPC   C1F 1113   3.502   3.437   1.231
   22POPC   C1G 1114   3.412   3.331   1.298
   22POPC   C1H 1115   3.455   3.294   1.442
   22POPC   C1I 1116   3.349   3.208   1.511
   22POPC   C1J 1117   3.345   3.164   1.638
   22POPC   C1K 1118   3.450   3.183   1.749
   22POPC   C1L 1119   3.385   3.205   1.886
   22POPC   C1M 1120   3.446   3.116   1.996
   22POPC   C1N 1121   3.435   3.165   2.142
   22POPC   C1O 1122   3.304   3.234   2.184
   22POPC   C1P 1123   3.265   3.212   2.331
   22POPC   C1Q 1124   3.372   3.249   2.434
   22POPC   C1R 1125   3.329   3.214   2.577
   22POPC    CE 1126   4.116   3.722   0.799
   22POPC    OG 1127   4.174   3.807   0.899
   22POPC   C2A 1128   4.119   3.799   1.020
   22POPC    OH 1129   4.047   3.704   1.048
   22POPC   C2B 1130   4.177   3.895   1.116
   22POPC   C2C 1131   4.090   3.921   1.239
   22POPC   C2D 1132   4.172   3.996   1.345
   22POPC   C2E 1133   4.085   4.018   1.469
   22POPC   C2F 1134   4.161   4.072   1.590
   22POPC   C2G 1135   4.059   4.080   1.704
   22POPC   C2H 1136   4.109   4.121   1.843
   22POPC   C2I 1137   3.984   4.126   1.930
   22POPC   C2J 1138   3.998   4.168   2.076
   22POPC   C2K 1139   3.855   4.173   2.133
   22POPC   C2L 1140   3.840   4.209   2.281
   22POPC   C2M 1141   3.692   4.193   2.321
   22POPC   C2N 1142   3.669   4.226   2.469
   22POPC   C2O 1143   3.520   4.231   2.501
   22POPC   C2P 1144   3.496   4.268   2.648
   23POPC   CN1 1145   3.756   6.096   0.379
   23POPC   CN2 1146   3.944   6.127   0.515
   23POPC   CN3 1147   3.900   6.286   0.346
   23POPC   NTM 1148   3.895   6.143   0.378
   23POPC    CA 1149   3.972   6.062   0.280
   23POPC    CB 1150   4.124   6.084   0.260
   23POPC    OA 1151   4.207   6.032   0.364
   23POPC     P 1152   4.323   6.138   0.394
   23POPC    OB 1153   4.243   6.258   0.419
   23POPC    OC 1154   4.391   6.118   0.265
   23POPC    OD 1155   4.402   6.067   0.509
   23POPC    CC 1156   4.347   5.994   0.621
   23POPC    CD 1157   4.233   6.034   0.718
   23POPC    OE 1158   4.252   6.151   0.800
   23POPC   C1A 1159   4.141   6.212   0.844
   23POPC    OF 1160   4.033   6.188   0.790
   23POPC   C1B 1161   4.167   6.318   0.945
   23POPC   C1C 1162   4.050   6.347   1.040
   23POPC   C1D 1163   4.018   6.235   1.140
   23POPC   C1E 1164   3.925   6.286   1.250
   23POPC   C1F 1165   3.912   6.189   1.367
   23POPC   C1G 1166   3.832   6.253   1.481
   23POPC   C1H 1167   3.836   6.174   1.612
   23POPC   C1I 1168   3.746   6.243   1.715
   23POPC   C1J 1169   3.779   6.264   1.842
   23POPC   C1K 1170   3.913   6.220   1.903
   23POPC   C1L 1171   3.909   6.212   2.057
   23POPC   C1M 1172   3.816   6.100   2.106
   23POPC   C1N 1173   3.827   6.068   2.256
   23POPC   C1O 1174   3.778   6.180   2.347
   23POPC   C1P 1175   3.756   6.132   2.491
   23POPC   C1Q 1176   3.884   6.086   2.560
   23POPC   C1R 1177   3.857   6.045   2.705
   23POPC    CE 1178   4.187   5.907   0.795
   23POPC    OG 1179   4.270   5.820   0.875
   23POPC   C2A 1180   4.223   5.787   0.997
   23POPC    OH 1181   4.121   5.841   1.039
   23POPC   C2B 1182   4.300   5.682   1.070
   23POPC   C2C 1183   4.291   5.690   1.224
   23POPC   C2D 1184   4.428   5.676   1.293
   23POPC   C2E 1185   4.427   5.725   1.439
   23POPC   C2F 1186   4.554   5.804   1.477
   23POPC   C2G 1187   4.563   5.835   1.627
   23POPC   C2H 1188   4.707   5.848   1.678
   23POPC   C2I 1189   4.715   5.827   1.830
   23POPC   C2J 1190   4.856   5.807   1.888
   23POPC   C2K 1191   4.845   5.755   2.032
   23POPC   C2L 1192   4.975   5.741   2.112
   23POPC   C2M 1193   5.011   5.871   2.185
   23POPC   C2N 1194   5.064   5.845   2.326
   23POPC   C2O 1195   5.078   5.976   2.404
   23POPC   C2P 1196   5.121   5.951   2.549
   24POPC   CN1 1197   1.903   2.939   0.170
   24POPC   CN2 1198   1.943   2.788   0.349
   24POPC   CN3 1199   1.999   2.724   0.126
   24POPC   NTM 1200   1.902   2.798   0.208
   24POPC    CA 1201   1.765   2.748   0.186
   24POPC    CB 1202   1.731   2.599   0.209
   24POPC    OA 1203   1.761   2.556   0.341
   24POPC     P 1204   1.683   2.429   0.393
   24POPC    OB 1205   1.754   2.312   0.441
   24POPC    OC 1206   1.594   2.397   0.278
   24POPC    OD 1207   1.597   2.496   0.506
   24POPC    CC 1208   1.645   2.614   0.574
   24POPC    CD 1209   1.763   2.654   0.666
   24POPC    OE 1210   1.802   2.567   0.774
   24POPC   C1A 1211   1.921   2.592   0.831
   24POPC    OF 1212   2.000   2.670   0.778
   24POPC   C1B 1213   1.944   2.513   0.954
   24POPC   C1C 1214   2.015   2.588   1.067
   24POPC   C1D 1215   1.935   2.703   1.128
   24POPC   C1E 1216   2.009   2.744   1.255
   24POPC   C1F 1217   1.960   2.868   1.330
   24POPC   C1G 1218   2.056   2.890   1.447
   24POPC   C1H 1219   2.034   3.024   1.517
   24POPC   C1I 1220   2.138   3.058   1.625
   24POPC   C1J 1221   2.139   3.027   1.754
   24POPC   C1K 1222   2.039   2.947   1.840
   24POPC   C1L 1223   2.082   2.932   1.988
   24POPC   C1M 1224   2.139   3.062   2.048
   24POPC   C1N 1225   2.115   3.086   2.197
   24POPC   C1O 1226   2.205   3.009   2.294
   24POPC   C1P 1227   2.186   3.058   2.438
   24POPC   C1Q 1228   2.050   3.019   2.496
   24POPC   C1R 1229   2.043   3.053   2.645
   24POPC    CE 1230   1.723   2.795   0.715
   24POPC    OG 1231   1.592   2.808   0.774
   24POPC   C2A 1232   1.587   2.856   0.899
   24POPC    OH 1233   1.685   2.914   0.946
   24POPC   C2B 1234   1.453   2.846   0.962
   24POPC   C2C 1235   1.461   2.837   1.115
   24POPC   C2D 1236   1.329   2.800   1.184
   24POPC   C2E 1237   1.346   2.805   1.336
   24POPC   C2F 1238   1.229   2.746   1.416
   24POPC   C2G 1239   1.262   2.752   1.565
   24POPC   C2H 1240   1.165   2.673   1.655
   24POPC   C2I 1241   1.221   2.670   1.797
   24POPC   C2J 1242   1.138   2.590   1.898
   24POPC   C2K 1243   1.211   2.582   2.032
   24POPC   C2L 1244   1.125   2.519   2.142
   24POPC   C2M 1245   1.200   2.511   2.275
   24POPC   C2N 1246   1.108   2.460   2.385
   24POPC   C2O 1247   1.178   2.459   2.521
   24POPC   C2P 1248   1.082   2.418   2.632
   25POPC   CN1 1249   1.419   4.281   0.453
   25POPC   CN2 1250   1.519   4.070   0.429
   25POPC   CN3 1251   1.585   4.238   0.282
   25POPC   NTM 1252   1.469   4.186   0.352
   25POPC    CA 1253   1.363   4.161   0.249
   25POPC    CB 1254   1.292   4.025   0.236
   25POPC    OA 1255   1.245   3.996   0.364
   25POPC     P 1256   1.238   3.845   0.402
   25POPC    OB 1257   1.352   3.784   0.329
   25POPC    OC 1258   1.100   3.809   0.375
   25POPC    OD 1259   1.276   3.879   0.549
   25POPC    CC 1260   1.179   3.956   0.622
   25POPC    CD 1261   1.232   4.081   0.695
   25POPC    OE 1262   1.315   4.042   0.805
   25POPC   C1A 1263   1.439   4.085   0.814
   25POPC    OF 1264   1.490   4.149   0.720
   25POPC   C1B 1265   1.505   4.000   0.914
   25POPC   C1C 1266   1.551   4.053   1.049
   25POPC   C1D 1267   1.458   4.123   1.148
   25POPC   C1E 1268   1.527   4.101   1.283
   25POPC   C1F 1269   1.495   4.203   1.391
   25POPC   C1G 1270   1.574   4.168   1.517
   25POPC   C1H 1271   1.558   4.275   1.624
   25POPC   C1I 1272   1.669   4.266   1.729
   25POPC   C1J 1273   1.653   4.220   1.852
   25POPC   C1K 1274   1.521   4.170   1.911
   25POPC   C1L 1275   1.527   4.167   2.064
   25POPC   C1M 1276   1.540   4.307   2.125
   25POPC   C1N 1277   1.526   4.312   2.278
   25POPC   C1O 1278   1.629   4.229   2.355
   25POPC   C1P 1279   1.638   4.268   2.504
   25POPC   C1Q 1280   1.502   4.276   2.575
   25POPC   C1R 1281   1.517   4.314   2.722
   25POPC    CE 1282   1.116   4.174   0.734
   25POPC    OG 1283   1.018   4.122   0.824
   25POPC   C2A 1284   1.043   4.131   0.954
   25POPC    OH 1285   1.138   4.195   0.999
   25POPC   C2B 1286   0.940   4.060   1.033
   25POPC   C2C 1287   0.903   4.125   1.167
   25POPC   C2D 1288   0.820   4.019   1.239
   25POPC   C2E 1289   0.781   4.048   1.384
   25POPC   C2F 1290   0.739   3.912   1.440
   25POPC   C2G 1291   0.711   3.909   1.589
   25POPC   C2H 1292   0.696   3.764   1.635
   25POPC   C2I 1293   0.719   3.755   1.786
   25POPC   C2J 1294   0.700   3.615   1.845
   25POPC   C2K 1295   0.755   3.618   1.987
   25POPC   C2L 1296   0.714   3.499   2.074
   25POPC   C2M 1297   0.780   3.516   2.211
   25POPC   C2N 1298   0.724   3.420   2.316
   25POPC   C2O 1299   0.793   3.440   2.450
   25POPC   C2P 1300   0.731   3.352   2.559
   26POPC   CN1 1301   1.850   5.413   0.463
   26POPC   CN2 1302   1.764   5.198   0.451
   26POPC   CN3 1303   1.794   5.342   0.251
   26POPC   NTM 1304   1.754   5.331   0.391
   26POPC    CA 1305   1.623   5.391   0.417
   26POPC    CB 1306   1.507   5.325   0.340
   26POPC    OA 1307   1.380   5.383   0.362
   26POPC     P 1308   1.258   5.286   0.332
   26POPC    OB 1309   1.318   5.171   0.260
   26POPC    OC 1310   1.178   5.382   0.252
   26POPC    OD 1311   1.207   5.240   0.475
   26POPC    CC 1312   1.241   5.296   0.603
   26POPC    CD 1313   1.377   5.257   0.667
   26POPC    OE 1314   1.388   5.132   0.740
   26POPC   C1A 1315   1.511   5.082   0.750
   26POPC    OF 1316   1.575   5.074   0.644
   26POPC   C1B 1317   1.541   5.017   0.881
   26POPC   C1C 1318   1.689   5.014   0.922
   26POPC   C1D 1319   1.711   4.984   1.071
   26POPC   C1E 1320   1.858   4.952   1.102
   26POPC   C1F 1321   1.911   4.994   1.241
   26POPC   C1G 1322   1.852   4.921   1.363
   26POPC   C1H 1323   1.911   4.974   1.495
   26POPC   C1I 1324   2.005   4.876   1.566
   26POPC   C1J 1325   2.017   4.876   1.699
   26POPC   C1K 1326   1.939   4.978   1.783
   26POPC   C1L 1327   1.901   4.938   1.926
   26POPC   C1M 1328   2.018   4.899   2.017
   26POPC   C1N 1329   1.978   4.914   2.164
   26POPC   C1O 1330   2.078   4.847   2.259
   26POPC   C1P 1331   2.083   4.908   2.399
   26POPC   C1Q 1332   1.946   4.926   2.466
   26POPC   C1R 1333   1.960   4.962   2.614
   26POPC    CE 1334   1.420   5.379   0.751
   26POPC    OG 1335   1.328   5.425   0.851
   26POPC   C2A 1336   1.348   5.374   0.973
   26POPC    OH 1337   1.446   5.303   0.996
   26POPC   C2B 1338   1.244   5.411   1.072
   26POPC   C2C 1339   1.297   5.398   1.215
   26POPC   C2D 1340   1.185   5.409   1.318
   26POPC   C2E 1341   1.241   5.387   1.458
   26POPC   C2F 1342   1.132   5.392   1.565
   26POPC   C2G 1343   1.190   5.351   1.700
   26POPC   C2H 1344   1.080   5.335   1.805
   26POPC   C2I 1345   1.131   5.261   1.929
   26POPC   C2J 1346   1.021   5.256   2.035
   26POPC   C2K 1347   1.051   5.151   2.141
   26POPC   C2L 1348   0.941   5.149   2.246
   26POPC   C2M 1349   0.952   5.026   2.336
   26POPC   C2N 1350   0.840   5.025   2.440
   26POPC   C2O 1351   0.842   4.894   2.520
   26POPC   C2P 1352   0.731   4.893   2.625
   27POPC   CN1 1353   2.582   4.965   0.393
   27POPC   CN2 1354   2.491   5.164   0.477
   27POPC   CN3 1355   2.511   5.131   0.235
   27POPC   NTM 1356   2.570   5.109   0.367
   27POPC    CA 1357   2.704   5.171   0.370
   27POPC    CB 1358   2.734   5.314   0.319
   27POPC    OA 1359   2.662   5.411   0.393
   27POPC     P 1360   2.720   5.557   0.378
   27POPC    OB 1361   2.651   5.610   0.259
   27POPC    OC 1362   2.866   5.539   0.371
   27POPC    OD 1363   2.681   5.614   0.518
   27POPC    CC 1364   2.738   5.547   0.632
   27POPC    CD 1365   2.637   5.459   0.709
   27POPC    OE 1366   2.565   5.532   0.811
   27POPC   C1A 1367   2.452   5.478   0.856
   27POPC    OF 1368   2.411   5.374   0.803
   27POPC   C1B 1369   2.390   5.556   0.964
   27POPC   C1C 1370   2.270   5.485   1.026
   27POPC   C1D 1371   2.290   5.467   1.176
   27POPC   C1E 1372   2.158   5.425   1.241
   27POPC   C1F 1373   2.178   5.408   1.392
   27POPC   C1G 1374   2.047   5.368   1.458
   27POPC   C1H 1375   2.068   5.339   1.607
   27POPC   C1I 1376   1.934   5.323   1.679
   27POPC   C1J 1377   1.932   5.339   1.811
   27POPC   C1K 1378   2.064   5.372   1.881
   27POPC   C1L 1379   2.052   5.399   2.031
   27POPC   C1M 1380   2.028   5.269   2.107
   27POPC   C1N 1381   2.055   5.277   2.257
   27POPC   C1O 1382   1.959   5.371   2.332
   27POPC   C1P 1383   1.956   5.341   2.482
   27POPC   C1Q 1384   2.093   5.352   2.549
   27POPC   C1R 1385   2.087   5.321   2.699
   27POPC    CE 1386   2.713   5.335   0.761
   27POPC    OG 1387   2.795   5.357   0.876
   27POPC   C2A 1388   2.736   5.327   0.992
   27POPC    OH 1389   2.659   5.231   1.000
   27POPC   C2B 1390   2.801   5.397   1.105
   27POPC   C2C 1391   2.714   5.427   1.227
   27POPC   C2D 1392   2.797   5.522   1.314
   27POPC   C2E 1393   2.749   5.536   1.458
   27POPC   C2F 1394   2.846   5.628   1.532
   27POPC   C2G 1395   2.828   5.620   1.683
   27POPC   C2H 1396   2.923   5.715   1.758
   27POPC   C2I 1397   2.918   5.682   1.908
   27POPC   C2J 1398   3.004   5.772   1.997
   27POPC   C2K 1399   2.939   5.908   2.029
   27POPC   C2L 1400   2.975   5.944   2.174
   27POPC   C2M 1401   2.914   6.076   2.224
   27POPC   C2N 1402   2.953   6.095   2.371
   27POPC   C2O 1403   2.890   6.219   2.434
   27POPC   C2P 1404   2.932   6.232   2.580
   28POPC   CN1 1405   2.540   4.118   0.270
   28POPC   CN2 1406   2.725   4.157   0.409
   28POPC   CN3 1407   2.712   4.275   0.209
   28POPC   NTM 1408   2.684   4.144   0.268
   28POPC    CA 1409   2.749   4.040   0.184
   28POPC    CB 1410   2.878   3.969   0.226
   28POPC    OA 1411   2.855   3.884   0.337
   28POPC     P 1412   2.989   3.859   0.419
   28POPC    OB 1413   3.026   3.999   0.438
   28POPC    OC 1414   3.052   3.773   0.317
   28POPC    OD 1415   2.893   3.792   0.524
   28POPC    CC 1416   2.910   3.832   0.660
   28POPC    CD 1417   2.825   3.954   0.697
   28POPC    OE 1418   2.887   4.035   0.798
   28POPC   C1A 1419   2.860   4.165   0.798
   28POPC    OF 1420   2.794   4.213   0.705
   28POPC   C1B 1421   2.944   4.237   0.896
   28POPC   C1C 1422   2.880   4.361   0.957
   28POPC   C1D 1423   2.819   4.335   1.095
   28POPC   C1E 1424   2.783   4.470   1.157
   28POPC   C1F 1425   2.744   4.461   1.305
   28POPC   C1G 1426   2.713   4.600   1.360
   28POPC   C1H 1427   2.675   4.597   1.508
   28POPC   C1I 1428   2.640   4.736   1.560
   28POPC   C1J 1429   2.657   4.770   1.688
   28POPC   C1K 1430   2.711   4.668   1.789
   28POPC   C1L 1431   2.672   4.696   1.935
   28POPC   C1M 1432   2.521   4.682   1.962
   28POPC   C1N 1433   2.488   4.662   2.110
   28POPC   C1O 1434   2.530   4.779   2.201
   28POPC   C1P 1435   2.486   4.760   2.346
   28POPC   C1Q 1436   2.554   4.642   2.416
   28POPC   C1R 1437   2.519   4.635   2.565
   28POPC    CE 1438   2.677   3.912   0.712
   28POPC    OG 1439   2.642   3.821   0.817
   28POPC   C2A 1440   2.623   3.876   0.938
   28POPC    OH 1441   2.614   3.998   0.949
   28POPC   C2B 1442   2.601   3.778   1.046
   28POPC   C2C 1443   2.651   3.833   1.180
   28POPC   C2D 1444   2.640   3.728   1.291
   28POPC   C2E 1445   2.678   3.790   1.425
   28POPC   C2F 1446   2.681   3.685   1.536
   28POPC   C2G 1447   2.710   3.751   1.671
   28POPC   C2H 1448   2.737   3.646   1.779
   28POPC   C2I 1449   2.764   3.713   1.914
   28POPC   C2J 1450   2.823   3.612   2.012
   28POPC   C2K 1451   2.855   3.679   2.146
   28POPC   C2L 1452   2.930   3.583   2.238
   28POPC   C2M 1453   2.954   3.647   2.375
   28POPC   C2N 1454   3.032   3.553   2.467
   28POPC   C2O 1455   3.047   3.615   2.606
   28POPC   C2P 1456   3.132   3.526   2.697
   29POPC   CN1 1457   1.262   0.561   0.203
   29POPC   CN2 1458   1.179   0.413   0.366
   29POPC   CN3 1459   1.202   0.334   0.146
   29POPC   NTM 1460   1.167   0.453   0.225
   29POPC    CA 1461   1.034   0.506   0.185
   29POPC    CB 1462   0.909   0.417   0.191
   29POPC    OA 1463   0.888   0.374   0.323
   29POPC     P 1464   0.825   0.228   0.326
   29POPC    OB 1465   0.924   0.164   0.237
   29POPC    OC 1466   0.695   0.271   0.275
   29POPC    OD 1467   0.852   0.195   0.478
   29POPC    CC 1468   0.837   0.291   0.583
   29POPC    CD 1469   0.974   0.331   0.643
   29POPC    OE 1470   1.038   0.230   0.724
   29POPC   C1A 1471   1.171   0.225   0.725
   29POPC    OF 1472   1.236   0.288   0.639
   29POPC   C1B 1473   1.221   0.120   0.816
   29POPC   C1C 1474   1.349   0.161   0.889
   29POPC   C1D 1475   1.324   0.187   1.037
   29POPC   C1E 1476   1.457   0.183   1.113
   29POPC   C1F 1477   1.439   0.196   1.264
   29POPC   C1G 1478   1.573   0.177   1.335
   29POPC   C1H 1479   1.559   0.196   1.487
   29POPC   C1I 1480   1.687   0.152   1.558
   29POPC   C1J 1481   1.697   0.154   1.690
   29POPC   C1K 1482   1.583   0.208   1.778
   29POPC   C1L 1483   1.590   0.171   1.927
   29POPC   C1M 1484   1.731   0.186   1.987
   29POPC   C1N 1485   1.736   0.212   2.137
   29POPC   C1O 1486   1.662   0.112   2.226
   29POPC   C1P 1487   1.690   0.147   2.372
   29POPC   C1Q 1488   1.594   0.077   2.468
   29POPC   C1R 1489   1.622   0.120   2.612
   29POPC    CE 1490   0.976   0.476   0.696
   29POPC    OG 1491   0.892   0.527   0.799
   29POPC   C2A 1492   0.930   0.510   0.926
   29POPC    OH 1493   1.036   0.454   0.953
   29POPC   C2B 1494   0.835   0.570   1.023
   29POPC   C2C 1495   0.862   0.531   1.169
   29POPC   C2D 1496   0.744   0.560   1.262
   29POPC   C2E 1497   0.764   0.479   1.391
   29POPC   C2F 1498   0.671   0.515   1.507
   29POPC   C2G 1499   0.693   0.411   1.618
   29POPC   C2H 1500   0.633   0.450   1.753
   29POPC   C2I 1501   0.651   0.335   1.851
   29POPC   C2J 1502   0.606   0.370   1.993
   29POPC   C2K 1503   0.617   0.247   2.083
   29POPC   C2L 1504   0.568   0.278   2.225
   29POPC   C2M 1505   0.563   0.150   2.309
   29POPC   C2N 1506   0.508   0.180   2.449
   29POPC   C2O 1507   0.492   0.051   2.530
   29POPC   C2P 1508   0.435   0.078   2.669
   30POPC   CN1 1509   3.225   3.096   0.185
   30POPC   CN2 1510   3.158   2.967   0.369
   30POPC   CN3 1511   3.233   2.854   0.172
   30POPC   NTM 1512   3.159   2.971   0.222
   30POPC    CA 1513   3.023   2.980   0.163
   30POPC    CB 1514   2.923   2.865   0.182
   30POPC    OA 1515   2.894   2.844   0.319
   30POPC     P 1516   2.865   2.694   0.341
   30POPC    OB 1517   3.001   2.638   0.324
   30POPC    OC 1518   2.768   2.663   0.235
   30POPC    OD 1519   2.800   2.682   0.483
   30POPC    CC 1520   2.836   2.773   0.588
   30POPC    CD 1521   2.981   2.783   0.636
   30POPC    OE 1522   3.033   2.663   0.695
   30POPC   C1A 1523   3.162   2.665   0.721
   30POPC    OF 1524   3.239   2.716   0.639
   30POPC   C1B 1525   3.194   2.599   0.849
   30POPC   C1C 1526   3.255   2.701   0.945
   30POPC   C1D 1527   3.205   2.679   1.088
   30POPC   C1E 1528   3.316   2.718   1.185
   30POPC   C1F 1529   3.275   2.717   1.331
   30POPC   C1G 1530   3.403   2.736   1.412
   30POPC   C1H 1531   3.383   2.741   1.563
   30POPC   C1I 1532   3.521   2.724   1.626
   30POPC   C1J 1533   3.536   2.705   1.757
   30POPC   C1K 1534   3.416   2.710   1.852
   30POPC   C1L 1535   3.453   2.672   1.996
   30POPC   C1M 1536   3.571   2.756   2.047
   30POPC   C1N 1537   3.605   2.741   2.196
   30POPC   C1O 1538   3.628   2.598   2.244
   30POPC   C1P 1539   3.703   2.593   2.378
   30POPC   C1Q 1540   3.645   2.683   2.487
   30POPC   C1R 1541   3.725   2.674   2.616
   30POPC    CE 1542   2.989   2.907   0.727
   30POPC    OG 1543   2.897   2.908   0.836
   30POPC   C2A 1544   2.942   2.956   0.951
   30POPC    OH 1545   3.053   3.011   0.957
   30POPC   C2B 1546   2.847   2.932   1.062
   30POPC   C2C 1547   2.917   2.915   1.197
   30POPC   C2D 1548   2.819   2.850   1.294
   30POPC   C2E 1549   2.873   2.847   1.436
   30POPC   C2F 1550   2.779   2.761   1.521
   30POPC   C2G 1551   2.811   2.768   1.670
   30POPC   C2H 1552   2.734   2.659   1.744
   30POPC   C2I 1553   2.765   2.665   1.893
   30POPC   C2J 1554   2.676   2.572   1.974
   30POPC   C2K 1555   2.697   2.608   2.121
   30POPC   C2L 1556   2.598   2.550   2.221
   30POPC   C2M 1557   2.631   2.412   2.277
   30POPC   C2N 1558   2.582   2.414   2.422
   30POPC   C2O 1559   2.615   2.285   2.496
   30POPC   C2P 1560   2.577   2.296   2.644
   31POPC   CN1 1561   4.658   4.982   0.391
   31POPC   CN2 1562   4.537   4.788   0.454
   31POPC   CN3 1563   4.581   4.825   0.220
   31POPC   NTM 1564   4.552   4.890   0.348
   31POPC    CA 1565   4.429   4.973   0.340
   31POPC    CB 1566   4.304   4.928   0.262
   31POPC    OA 1567   4.258   4.800   0.298
   31POPC     P 1568   4.111   4.796   0.361
   31POPC    OB 1569   4.065   4.673   0.297
   31POPC    OC 1570   4.047   4.925   0.328
   31POPC    OD 1571   4.160   4.782   0.509
   31POPC    CC 1572   4.177   4.895   0.597
   31POPC    CD 1573   4.287   4.870   0.703
   31POPC    OE 1574   4.247   4.775   0.801
   31POPC   C1A 1575   4.343   4.691   0.838
   31POPC    OF 1576   4.433   4.665   0.757
   31POPC   C1B 1577   4.303   4.619   0.960
   31POPC   C1C 1578   4.402   4.625   1.076
   31POPC   C1D 1579   4.444   4.761   1.134
   31POPC   C1E 1580   4.485   4.730   1.278
   31POPC   C1F 1581   4.583   4.823   1.348
   31POPC   C1G 1582   4.623   4.756   1.479
   31POPC   C1H 1583   4.729   4.834   1.556
   31POPC   C1I 1584   4.805   4.756   1.663
   31POPC   C1J 1585   4.789   4.761   1.795
   31POPC   C1K 1586   4.689   4.846   1.873
   31POPC   C1L 1587   4.685   4.813   2.023
   31POPC   C1M 1588   4.823   4.825   2.088
   31POPC   C1N 1589   4.828   4.894   2.225
   31POPC   C1O 1590   4.751   4.827   2.338
   31POPC   C1P 1591   4.791   4.897   2.468
   31POPC   C1Q 1592   4.678   4.898   2.572
   31POPC   C1R 1593   4.717   4.988   2.690
   31POPC    CE 1594   4.360   4.994   0.761
   31POPC    OG 1595   4.285   5.096   0.829
   31POPC   C2A 1596   4.323   5.132   0.951
   31POPC    OH 1597   4.406   5.062   1.010
   31POPC   C2B 1598   4.247   5.246   1.009
   31POPC   C2C 1599   4.264   5.257   1.161
   31POPC   C2D 1600   4.159   5.341   1.233
   31POPC   C2E 1601   4.200   5.351   1.380
   31POPC   C2F 1602   4.091   5.409   1.470
   31POPC   C2G 1603   4.141   5.421   1.614
   31POPC   C2H 1604   4.033   5.477   1.706
   31POPC   C2I 1605   4.082   5.491   1.850
   31POPC   C2J 1606   3.969   5.544   1.938
   31POPC   C2K 1607   3.999   5.534   2.088
   31POPC   C2L 1608   3.868   5.538   2.167
   31POPC   C2M 1609   3.874   5.474   2.306
   31POPC   C2N 1610   3.739   5.408   2.336
   31POPC   C2O 1611   3.731   5.342   2.473
   31POPC   C2P 1612   3.589   5.290   2.499
   32POPC   CN1 1613   1.295   4.753   0.473
   32POPC   CN2 1614   1.071   4.699   0.419
   32POPC   CN3 1615   1.226   4.650   0.263
   32POPC   NTM 1616   1.196   4.751   0.363
   32POPC    CA 1617   1.193   4.886   0.300
   32POPC    CB 1618   1.062   4.968   0.285
   32POPC    OA 1619   1.005   4.987   0.413
   32POPC     P 1620   0.847   4.995   0.413
   32POPC    OB 1621   0.817   4.891   0.312
   32POPC    OC 1622   0.829   5.137   0.380
   32POPC    OD 1623   0.823   4.944   0.560
   32POPC    CC 1624   0.905   4.986   0.671
   32POPC    CD 1625   1.010   4.881   0.714
   32POPC    OE 1626   0.960   4.768   0.789
   32POPC   C1A 1627   1.027   4.653   0.787
   32POPC    OF 1628   1.116   4.636   0.702
   32POPC   C1B 1629   0.961   4.547   0.866
   32POPC   C1C 1630   1.041   4.496   0.987
   32POPC   C1D 1631   1.049   4.594   1.104
   32POPC   C1E 1632   1.046   4.520   1.239
   32POPC   C1F 1633   1.162   4.422   1.256
   32POPC   C1G 1634   1.146   4.331   1.379
   32POPC   C1H 1635   1.150   4.404   1.513
   32POPC   C1I 1636   1.222   4.315   1.614
   32POPC   C1J 1637   1.208   4.316   1.746
   32POPC   C1K 1638   1.113   4.410   1.821
   32POPC   C1L 1639   1.058   4.353   1.953
   32POPC   C1M 1640   1.163   4.295   2.048
   32POPC   C1N 1641   1.109   4.273   2.190
   32POPC   C1O 1642   1.187   4.160   2.258
   32POPC   C1P 1643   1.194   4.169   2.410
   32POPC   C1Q 1644   1.060   4.163   2.483
   32POPC   C1R 1645   1.083   4.154   2.634
   32POPC    CE 1646   1.132   4.954   0.771
   32POPC    OG 1647   1.115   5.027   0.892
   32POPC   C2A 1648   1.177   4.974   0.998
   32POPC    OH 1649   1.254   4.878   0.988
   32POPC   C2B 1650   1.150   5.051   1.120
   32POPC   C2C 1651   1.109   4.962   1.236
   32POPC   C2D 1652   1.050   5.048   1.347
   32POPC   C2E 1653   1.002   4.962   1.463
   32POPC   C2F 1654   0.928   5.049   1.564
   32POPC   C2G 1655   0.881   4.964   1.681
   32POPC   C2H 1656   0.794   5.047   1.775
   32POPC   C2I 1657   0.743   4.959   1.889
   32POPC   C2J 1658   0.652   5.037   1.983
   32POPC   C2K 1659   0.599   4.943   2.091
   32POPC   C2L 1660   0.513   5.019   2.192
   32POPC   C2M 1661   0.462   4.921   2.298
   32POPC   C2N 1662   0.385   4.994   2.408
   32POPC   C2O 1663   0.338   4.895   2.514
   32POPC   C2P 1664   0.268   4.967   2.629
   33POPC   CN1 1665   4.415   3.174   0.354
   33POPC   CN2 1666   4.630   3.224   0.418
   33POPC   CN3 1667   4.563   3.302   0.205
   33POPC   NTM 1668   4.549   3.191   0.299
   33POPC    CA 1669   4.580   3.065   0.227
   33POPC    CB 1670   4.724   3.017   0.199
   33POPC    OA 1671   4.782   2.988   0.324
   33POPC     P 1672   4.932   3.035   0.352
   33POPC    OB 1673   4.915   3.159   0.273
   33POPC    OC 1674   4.969   2.906   0.296
   33POPC    OD 1675   4.876   3.053   0.499
   33POPC    CC 1676   4.840   2.941   0.583
   33POPC    CD 1677   4.711   2.978   0.659
   33POPC    OE 1678   4.735   3.039   0.787
   33POPC   C1A 1679   4.666   3.145   0.823
   33POPC    OF 1680   4.615   3.218   0.737
   33POPC   C1B 1681   4.697   3.172   0.963
   33POPC   C1C 1682   4.599   3.248   1.052
   33POPC   C1D 1683   4.657   3.240   1.193
   33POPC   C1E 1684   4.573   3.301   1.305
   33POPC   C1F 1685   4.482   3.196   1.370
   33POPC   C1G 1686   4.417   3.255   1.495
   33POPC   C1H 1687   4.323   3.155   1.562
   33POPC   C1I 1688   4.213   3.225   1.642
   33POPC   C1J 1689   4.225   3.255   1.772
   33POPC   C1K 1690   4.350   3.218   1.852
   33POPC   C1L 1691   4.331   3.230   2.004
   33POPC   C1M 1692   4.229   3.129   2.058
   33POPC   C1N 1693   4.223   3.124   2.211
   33POPC   C1O 1694   4.164   3.250   2.273
   33POPC   C1P 1695   4.094   3.226   2.407
   33POPC   C1Q 1696   4.189   3.181   2.519
   33POPC   C1R 1697   4.111   3.166   2.650
   33POPC    CE 1698   4.605   2.865   0.657
   33POPC    OG 1699   4.594   2.758   0.752
   33POPC   C2A 1700   4.538   2.783   0.870
   33POPC    OH 1701   4.468   2.883   0.886
   33POPC   C2B 1702   4.543   2.666   0.961
   33POPC   C2C 1703   4.529   2.699   1.110
   33POPC   C2D 1704   4.586   2.583   1.194
   33POPC   C2E 1705   4.591   2.617   1.343
   33POPC   C2F 1706   4.709   2.549   1.413
   33POPC   C2G 1707   4.716   2.590   1.561
   33POPC   C2H 1708   4.825   2.518   1.641
   33POPC   C2I 1709   4.798   2.537   1.790
   33POPC   C2J 1710   4.898   2.464   1.880
   33POPC   C2K 1711   4.852   2.470   2.026
   33POPC   C2L 1712   4.957   2.409   2.120
   33POPC   C2M 1713   4.910   2.415   2.266
   33POPC   C2N 1714   5.024   2.382   2.362
   33POPC   C2O 1715   4.978   2.392   2.507
   33POPC   C2P 1716   5.095   2.370   2.604
   34POPC   CN1 1717   0.609   0.787   0.336
   34POPC   CN2 1718   0.594   0.566   0.415
   34POPC   CN3 1719   0.600   0.600   0.179
   34POPC   NTM 1720   0.552   0.656   0.305
   34POPC    CA 1721   0.405   0.677   0.293
   34POPC    CB 1722   0.309   0.556   0.286
   34POPC    OA 1723   0.317   0.485   0.407
   34POPC     P 1724   0.207   0.376   0.419
   34POPC    OB 1725   0.241   0.287   0.307
   34POPC    OC 1726   0.086   0.457   0.417
   34POPC    OD 1727   0.243   0.319   0.561
   34POPC    CC 1728   0.242   0.414   0.668
   34POPC    CD 1729   0.383   0.449   0.719
   34POPC    OE 1730   0.428   0.366   0.829
   34POPC   C1A 1731   0.560   0.357   0.847
   34POPC    OF 1732   0.636   0.406   0.763
   34POPC   C1B 1733   0.595   0.283   0.970
   34POPC   C1C 1734   0.733   0.217   0.969
   34POPC   C1D 1735   0.765   0.177   1.113
   34POPC   C1E 1736   0.914   0.175   1.145
   34POPC   C1F 1737   0.927   0.166   1.297
   34POPC   C1G 1738   1.069   0.192   1.347
   34POPC   C1H 1739   1.060   0.235   1.493
   34POPC   C1I 1740   1.186   0.203   1.573
   34POPC   C1J 1741   1.177   0.210   1.705
   34POPC   C1K 1742   1.043   0.257   1.764
   34POPC   C1L 1743   1.019   0.231   1.913
   34POPC   C1M 1744   1.137   0.270   2.002
   34POPC   C1N 1745   1.097   0.276   2.149
   34POPC   C1O 1746   1.220   0.258   2.238
   34POPC   C1P 1747   1.203   0.306   2.383
   34POPC   C1Q 1748   1.070   0.270   2.450
   34POPC   C1R 1749   1.067   0.320   2.594
   34POPC    CE 1750   0.390   0.601   0.745
   34POPC    OG 1751   0.321   0.655   0.859
   34POPC   C2A 1752   0.392   0.662   0.972
   34POPC    OH 1753   0.514   0.656   0.970
   34POPC   C2B 1754   0.311   0.702   1.089
   34POPC   C2C 1755   0.345   0.615   1.210
   34POPC   C2D 1756   0.270   0.658   1.335
   34POPC   C2E 1757   0.294   0.554   1.445
   34POPC   C2F 1758   0.228   0.590   1.578
   34POPC   C2G 1759   0.249   0.473   1.673
   34POPC   C2H 1760   0.193   0.496   1.813
   34POPC   C2I 1761   0.210   0.367   1.892
   34POPC   C2J 1762   0.164   0.378   2.038
   34POPC   C2K 1763   0.174   0.241   2.104
   34POPC   C2L 1764   0.136   0.248   2.252
   34POPC   C2M 1765   0.130   0.108   2.313
   34POPC   C2N 1766   0.087   0.118   2.459
   34POPC   C2O 1767   0.069  -0.021   2.521
   34POPC   C2P 1768   0.017  -0.009   2.665
   35POPC   CN1 1769   5.965   4.520   0.365
   35POPC   CN2 1770   5.889   4.710   0.480
   35POPC   CN3 1771   5.879   4.714   0.242
   35POPC   NTM 1772   5.958   4.666   0.356
   35POPC    CA 1773   6.097   4.716   0.349
   35POPC    CB 1774   6.126   4.865   0.315
   35POPC    OA 1775   6.056   4.948   0.405
   35POPC     P 1776   6.080   5.101   0.380
   35POPC    OB 1777   6.004   5.118   0.255
   35POPC    OC 1778   6.226   5.110   0.381
   35POPC    OD 1779   6.016   5.159   0.512
   35POPC    CC 1780   6.066   5.107   0.636
   35POPC    CD 1781   5.975   5.000   0.699
   35POPC    OE 1782   5.868   5.051   0.781
   35POPC   C1A 1783   5.760   4.975   0.795
   35POPC    OF 1784   5.744   4.875   0.724
   35POPC   C1B 1785   5.659   5.039   0.883
   35POPC   C1C 1786   5.559   4.940   0.942
   35POPC   C1D 1787   5.566   4.938   1.094
   35POPC   C1E 1788   5.439   4.874   1.151
   35POPC   C1F 1789   5.446   4.871   1.303
   35POPC   C1G 1790   5.315   4.821   1.365
   35POPC   C1H 1791   5.329   4.810   1.517
   35POPC   C1I 1792   5.200   4.757   1.578
   35POPC   C1J 1793   5.168   4.787   1.704
   35POPC   C1K 1794   5.264   4.871   1.788
   35POPC   C1L 1795   5.245   4.852   1.939
   35POPC   C1M 1796   5.285   4.712   1.989
   35POPC   C1N 1797   5.294   4.704   2.142
   35POPC   C1O 1798   5.164   4.743   2.211
   35POPC   C1P 1799   5.162   4.717   2.362
   35POPC   C1Q 1800   5.253   4.811   2.441
   35POPC   C1R 1801   5.234   4.787   2.591
   35POPC    CE 1802   6.063   4.890   0.762
   35POPC    OG 1803   6.149   4.921   0.873
   35POPC   C2A 1804   6.092   4.916   0.994
   35POPC    OH 1805   5.974   4.883   1.008
   35POPC   C2B 1806   6.186   4.940   1.105
   35POPC   C2C 1807   6.123   5.033   1.207
   35POPC   C2D 1808   6.197   5.034   1.340
   35POPC   C2E 1809   6.126   5.132   1.433
   35POPC   C2F 1810   6.174   5.125   1.578
   35POPC   C2G 1811   6.090   5.224   1.659
   35POPC   C2H 1812   6.121   5.219   1.808
   35POPC   C2I 1813   6.034   5.323   1.879
   35POPC   C2J 1814   6.075   5.339   2.025
   35POPC   C2K 1815   6.005   5.460   2.086
   35POPC   C2L 1816   6.056   5.485   2.228
   35POPC   C2M 1817   5.995   5.612   2.286
   35POPC   C2N 1818   6.044   5.634   2.429
   35POPC   C2O 1819   5.980   5.760   2.488
   35POPC   C2P 1820   6.021   5.781   2.634
   36POPC   CN1 1821   0.398   2.820   0.123
   36POPC   CN2 1822   0.332   2.880   0.345
   36POPC   CN3 1823   0.194   2.938   0.160
   36POPC   NTM 1824   0.333   2.924   0.204
   36POPC    CA 1825   0.412   3.049   0.189
   36POPC    CB 1826   0.352   3.184   0.234
   36POPC    OA 1827   0.310   3.182   0.369
   36POPC     P 1828   0.194   3.286   0.394
   36POPC    OB 1829   0.094   3.235   0.301
   36POPC    OC 1830   0.264   3.413   0.368
   36POPC    OD 1831   0.164   3.262   0.546
   36POPC    CC 1832   0.277   3.252   0.633
   36POPC    CD 1833   0.293   3.110   0.690
   36POPC    OE 1834   0.198   3.081   0.795
   36POPC   C1A 1835   0.142   2.960   0.796
   36POPC    OF 1836   0.170   2.877   0.710
   36POPC   C1B 1837   0.032   2.952   0.895
   36POPC   C1C 1838   0.033   2.828   0.983
   36POPC   C1D 1839   0.138   2.834   1.094
   36POPC   C1E 1840   0.104   2.724   1.194
   36POPC   C1F 1841   0.200   2.710   1.312
   36POPC   C1G 1842   0.140   2.602   1.402
   36POPC   C1H 1843   0.217   2.574   1.531
   36POPC   C1I 1844   0.131   2.475   1.611
   36POPC   C1J 1845   0.109   2.492   1.740
   36POPC   C1K 1846   0.176   2.607   1.816
   36POPC   C1L 1847   0.183   2.586   1.968
   36POPC   C1M 1848   0.240   2.448   2.004
   36POPC   C1N 1849   0.295   2.432   2.146
   36POPC   C1O 1850   0.201   2.462   2.261
   36POPC   C1P 1851   0.281   2.438   2.390
   36POPC   C1Q 1852   0.207   2.483   2.516
   36POPC   C1R 1853   0.294   2.456   2.638
   36POPC    CE 1854   0.441   3.090   0.728
   36POPC    OG 1855   0.493   3.178   0.829
   36POPC   C2A 1856   0.512   3.123   0.948
   36POPC    OH 1857   0.524   3.001   0.960
   36POPC   C2B 1858   0.544   3.221   1.054
   36POPC   C2C 1859   0.485   3.178   1.188
   36POPC   C2D 1860   0.514   3.278   1.299
   36POPC   C2E 1861   0.450   3.228   1.429
   36POPC   C2F 1862   0.465   3.326   1.544
   36POPC   C2G 1863   0.385   3.273   1.663
   36POPC   C2H 1864   0.379   3.371   1.780
   36POPC   C2I 1865   0.279   3.320   1.883
   36POPC   C2J 1866   0.263   3.419   1.998
   36POPC   C2K 1867   0.153   3.375   2.094
   36POPC   C2L 1868   0.142   3.475   2.209
   36POPC   C2M 1869   0.040   3.433   2.315
   36POPC   C2N 1870   0.052   3.528   2.434
   36POPC   C2O 1871  -0.030   3.480   2.554
   36POPC   C2P 1872   0.006   3.562   2.678
   37POPC   CN1 1873   4.323   2.365   0.216
   37POPC   CN2 1874   4.175   2.259   0.363
   37POPC   CN3 1875   4.166   2.213   0.123
   37POPC   NTM 1876   4.186   2.315   0.227
   37POPC    CA 1877   4.089   2.426   0.206
   37POPC    CB 1878   3.937   2.398   0.201
   37POPC    OA 1879   3.875   2.367   0.326
   37POPC     P 1880   3.780   2.240   0.318
   37POPC    OB 1881   3.879   2.137   0.283
   37POPC    OC 1882   3.691   2.295   0.214
   37POPC    OD 1883   3.724   2.248   0.465
   37POPC    CC 1884   3.798   2.294   0.580
   37POPC    CD 1885   3.927   2.243   0.650
   37POPC    OE 1886   3.925   2.109   0.707
   37POPC   C1A 1887   4.037   2.036   0.696
   37POPC    OF 1888   4.112   2.062   0.601
   37POPC   C1B 1889   4.039   1.905   0.768
   37POPC   C1C 1890   3.999   1.888   0.916
   37POPC   C1D 1891   4.100   1.939   1.022
   37POPC   C1E 1892   4.085   1.864   1.156
   37POPC   C1F 1893   4.167   1.928   1.269
   37POPC   C1G 1894   4.193   1.839   1.391
   37POPC   C1H 1895   4.257   1.915   1.508
   37POPC   C1I 1896   4.359   1.830   1.584
   37POPC   C1J 1897   4.375   1.833   1.717
   37POPC   C1K 1898   4.290   1.919   1.810
   37POPC   C1L 1899   4.292   1.874   1.957
   37POPC   C1M 1900   4.433   1.877   2.019
   37POPC   C1N 1901   4.434   1.884   2.173
   37POPC   C1O 1902   4.380   1.760   2.243
   37POPC   C1P 1903   4.395   1.769   2.396
   37POPC   C1Q 1904   4.303   1.873   2.459
   37POPC   C1R 1905   4.321   1.877   2.611
   37POPC    CE 1906   3.967   2.353   0.752
   37POPC    OG 1907   3.867   2.447   0.799
   37POPC   C2A 1908   3.884   2.491   0.924
   37POPC    OH 1909   3.998   2.498   0.969
   37POPC   C2B 1910   3.763   2.550   0.988
   37POPC   C2C 1911   3.775   2.553   1.142
   37POPC   C2D 1912   3.654   2.499   1.219
   37POPC   C2E 1913   3.689   2.477   1.367
   37POPC   C2F 1914   3.580   2.406   1.448
   37POPC   C2G 1915   3.632   2.367   1.587
   37POPC   C2H 1916   3.523   2.338   1.690
   37POPC   C2I 1917   3.582   2.293   1.824
   37POPC   C2J 1918   3.475   2.298   1.933
   37POPC   C2K 1919   3.516   2.233   2.065
   37POPC   C2L 1920   3.404   2.250   2.169
   37POPC   C2M 1921   3.426   2.154   2.286
   37POPC   C2N 1922   3.325   2.176   2.399
   37POPC   C2O 1923   3.348   2.070   2.507
   37POPC   C2P 1924   3.274   2.104   2.636
   38POPC   CN1 1925   2.777   1.832   0.493
   38POPC   CN2 1926   2.992   1.886   0.410
   38POPC   CN3 1927   2.815   1.866   0.256
   38POPC   NTM 1928   2.869   1.812   0.380
   38POPC    CA 1929   2.889   1.667   0.360
   38POPC    CB 1930   3.028   1.608   0.328
   38POPC    OA 1931   3.113   1.622   0.440
   38POPC     P 1932   3.267   1.635   0.408
   38POPC    OB 1933   3.262   1.703   0.277
   38POPC    OC 1934   3.294   1.491   0.421
   38POPC    OD 1935   3.295   1.735   0.527
   38POPC    CC 1936   3.263   1.704   0.664
   38POPC    CD 1937   3.136   1.778   0.712
   38POPC    OE 1938   3.152   1.896   0.793
   38POPC   C1A 1939   3.062   1.994   0.781
   38POPC    OF 1940   3.015   2.019   0.669
   38POPC   C1B 1941   3.050   2.072   0.906
   38POPC   C1C 1942   2.996   2.215   0.904
   38POPC   C1D 1943   2.978   2.242   1.054
   38POPC   C1E 1944   2.953   2.381   1.111
   38POPC   C1F 1945   2.926   2.356   1.260
   38POPC   C1G 1946   2.983   2.461   1.356
   38POPC   C1H 1947   2.985   2.409   1.500
   38POPC   C1I 1948   3.039   2.521   1.590
   38POPC   C1J 1949   3.092   2.511   1.712
   38POPC   C1K 1950   3.113   2.381   1.789
   38POPC   C1L 1951   3.129   2.405   1.939
   38POPC   C1M 1952   2.996   2.390   2.013
   38POPC   C1N 1953   3.006   2.387   2.166
   38POPC   C1O 1954   3.044   2.521   2.228
   38POPC   C1P 1955   2.968   2.551   2.358
   38POPC   C1Q 1956   2.998   2.457   2.475
   38POPC   C1R 1957   2.926   2.506   2.601
   38POPC    CE 1958   3.043   1.671   0.773
   38POPC    OG 1959   3.073   1.620   0.903
   38POPC   C2A 1960   3.021   1.687   1.007
   38POPC    OH 1961   2.929   1.766   0.989
   38POPC   C2B 1962   3.056   1.627   1.137
   38POPC   C2C 1963   3.132   1.717   1.234
   38POPC   C2D 1964   3.159   1.637   1.361
   38POPC   C2E 1965   3.267   1.704   1.446
   38POPC   C2F 1966   3.306   1.622   1.569
   38POPC   C2G 1967   3.429   1.686   1.633
   38POPC   C2H 1968   3.468   1.627   1.768
   38POPC   C2I 1969   3.574   1.717   1.832
   38POPC   C2J 1970   3.602   1.680   1.977
   38POPC   C2K 1971   3.679   1.792   2.047
   38POPC   C2L 1972   3.699   1.758   2.195
   38POPC   C2M 1973   3.778   1.868   2.267
   38POPC   C2N 1974   3.805   1.827   2.411
   38POPC   C2O 1975   3.893   1.930   2.482
   38POPC   C2P 1976   3.923   1.887   2.626
   39POPC   CN1 1977   2.411   1.343   0.442
   39POPC   CN2 1978   2.268   1.529   0.450
   39POPC   CN3 1979   2.289   1.412   0.246
   39POPC   NTM 1980   2.363   1.456   0.364
   39POPC    CA 1981   2.487   1.524   0.323
   39POPC    CB 1982   2.486   1.673   0.290
   39POPC    OA 1983   2.468   1.750   0.408
   39POPC     P 1984   2.400   1.890   0.376
   39POPC    OB 1985   2.279   1.836   0.310
   39POPC    OC 1986   2.512   1.935   0.292
   39POPC    OD 1987   2.381   1.949   0.520
   39POPC    CC 1988   2.419   1.884   0.643
   39POPC    CD 1989   2.323   1.777   0.700
   39POPC    OE 1990   2.202   1.825   0.762
   39POPC   C1A 1991   2.087   1.761   0.739
   39POPC    OF 1992   2.077   1.691   0.637
   39POPC   C1B 1993   1.979   1.805   0.831
   39POPC   C1C 1994   1.892   1.695   0.893
   39POPC   C1D 1995   1.808   1.754   1.007
   39POPC   C1E 1996   1.717   1.657   1.084
   39POPC   C1F 1997   1.780   1.615   1.218
   39POPC   C1G 1998   1.679   1.565   1.322
   39POPC   C1H 1999   1.744   1.527   1.456
   39POPC   C1I 2000   1.635   1.483   1.554
   39POPC   C1J 2001   1.638   1.480   1.688
   39POPC   C1K 2002   1.756   1.517   1.778
   39POPC   C1L 2003   1.717   1.509   1.926
   39POPC   C1M 2004   1.686   1.367   1.974
   39POPC   C1N 2005   1.651   1.356   2.123
   39POPC   C1O 2006   1.521   1.427   2.160
   39POPC   C1P 2007   1.470   1.391   2.300
   39POPC   C1Q 2008   1.564   1.437   2.412
   39POPC   C1R 2009   1.508   1.402   2.550
   39POPC    CE 2010   2.406   1.682   0.788
   39POPC    OG 2011   2.484   1.730   0.899
   39POPC   C2A 2012   2.497   1.643   1.000
   39POPC    OH 2013   2.456   1.528   0.986
   39POPC   C2B 2014   2.572   1.687   1.120
   39POPC   C2C 2015   2.478   1.723   1.236
   39POPC   C2D 2016   2.551   1.733   1.370
   39POPC   C2E 2017   2.455   1.772   1.482
   39POPC   C2F 2018   2.523   1.792   1.617
   39POPC   C2G 2019   2.418   1.824   1.724
   39POPC   C2H 2020   2.479   1.868   1.858
   39POPC   C2I 2021   2.368   1.907   1.956
   39POPC   C2J 2022   2.420   1.982   2.078
   39POPC   C2K 2023   2.301   2.031   2.161
   39POPC   C2L 2024   2.341   2.120   2.279
   39POPC   C2M 2025   2.216   2.173   2.350
   39POPC   C2N 2026   2.251   2.245   2.480
   39POPC   C2O 2027   2.128   2.287   2.559
   39POPC   C2P 2028   2.168   2.337   2.698
   40POPC   CN1 2029   6.261   1.106   0.295
   40POPC   CN2 2030   6.104   1.163   0.464
   40POPC   CN3 2031   6.034   1.032   0.279
   40POPC   NTM 2032   6.121   1.144   0.318
   40POPC    CA 2033   6.091   1.265   0.237
   40POPC    CB 2034   5.952   1.333   0.240
   40POPC    OA 2035   5.922   1.409   0.356
   40POPC     P 2036   5.772   1.380   0.401
   40POPC    OB 2037   5.786   1.239   0.437
   40POPC    OC 2038   5.704   1.420   0.277
   40POPC    OD 2039   5.760   1.490   0.513
   40POPC    CC 2040   5.851   1.511   0.622
   40POPC    CD 2041   5.925   1.398   0.696
   40POPC    OE 2042   5.851   1.341   0.806
   40POPC   C1A 2043   5.887   1.221   0.850
   40POPC    OF 2044   5.975   1.157   0.790
   40POPC   C1B 2045   5.798   1.174   0.959
   40POPC   C1C 2046   5.865   1.083   1.062
   40POPC   C1D 2047   5.952   1.156   1.164
   40POPC   C1E 2048   5.997   1.052   1.268
   40POPC   C1F 2049   6.070   1.112   1.388
   40POPC   C1G 2050   6.095   1.000   1.489
   40POPC   C1H 2051   6.155   1.051   1.620
   40POPC   C1I 2052   6.161   0.937   1.722
   40POPC   C1J 2053   6.136   0.960   1.850
   40POPC   C1K 2054   6.103   1.103   1.897
   40POPC   C1L 2055   6.125   1.125   2.047
   40POPC   C1M 2056   6.271   1.107   2.090
   40POPC   C1N 2057   6.297   1.141   2.237
   40POPC   C1O 2058   6.218   1.053   2.335
   40POPC   C1P 2059   6.260   1.078   2.480
   40POPC   C1Q 2060   6.229   1.220   2.528
   40POPC   C1R 2061   6.282   1.242   2.670
   40POPC    CE 2062   6.062   1.458   0.735
   40POPC    OG 2063   6.057   1.578   0.813
   40POPC   C2A 2064   6.090   1.562   0.941
   40POPC    OH 2065   6.174   1.477   0.971
   40POPC   C2B 2066   6.044   1.672   1.028
   40POPC   C2C 2067   6.018   1.628   1.172
   40POPC   C2D 2068   5.991   1.750   1.260
   40POPC   C2E 2069   5.982   1.716   1.409
   40POPC   C2F 2070   5.972   1.845   1.490
   40POPC   C2G 2071   5.969   1.819   1.641
   40POPC   C2H 2072   5.952   1.952   1.716
   40POPC   C2I 2073   5.945   1.931   1.868
   40POPC   C2J 2074   5.910   2.062   1.939
   40POPC   C2K 2075   5.892   2.040   2.089
   40POPC   C2L 2076   5.819   2.157   2.156
   40POPC   C2M 2077   5.772   2.117   2.296
   40POPC   C2N 2078   5.682   2.224   2.359
   40POPC   C2O 2079   5.621   2.173   2.490
   40POPC   C2P 2080   5.530   2.277   2.555
   41POPC   CN1 2081   5.657   5.949   0.345
   41POPC   CN2 2082   5.572   5.756   0.452
   41POPC   CN3 2083   5.698   5.729   0.256
   41POPC   NTM 2084   5.600   5.816   0.321
   41POPC    CA 2085   5.483   5.834   0.231
   41POPC    CB 2086   5.353   5.753   0.248
   41POPC    OA 2087   5.291   5.790   0.368
   41POPC     P 2088   5.154   5.722   0.394
   41POPC    OB 2089   5.188   5.585   0.429
   41POPC    OC 2090   5.086   5.744   0.265
   41POPC    OD 2091   5.136   5.818   0.517
   41POPC    CC 2092   5.186   5.762   0.640
   41POPC    CD 2093   5.319   5.800   0.709
   41POPC    OE 2094   5.337   5.714   0.823
   41POPC   C1A 2095   5.459   5.668   0.850
   41POPC    OF 2096   5.555   5.702   0.780
   41POPC   C1B 2097   5.455   5.566   0.956
   41POPC   C1C 2098   5.561   5.580   1.065
   41POPC   C1D 2099   5.531   5.692   1.164
   41POPC   C1E 2100   5.627   5.675   1.282
   41POPC   C1F 2101   5.612   5.781   1.390
   41POPC   C1G 2102   5.712   5.746   1.500
   41POPC   C1H 2103   5.715   5.845   1.616
   41POPC   C1I 2104   5.830   5.805   1.709
   41POPC   C1J 2105   5.811   5.768   1.835
   41POPC   C1K 2106   5.672   5.769   1.900
   41POPC   C1L 2107   5.683   5.795   2.050
   41POPC   C1M 2108   5.730   5.938   2.081
   41POPC   C1N 2109   5.766   5.961   2.228
   41POPC   C1O 2110   5.650   5.935   2.323
   41POPC   C1P 2111   5.685   5.982   2.464
   41POPC   C1Q 2112   5.569   5.959   2.561
   41POPC   C1R 2113   5.605   6.010   2.701
   41POPC    CE 2114   5.339   5.950   0.741
   41POPC    OG 2115   5.245   6.025   0.821
   41POPC   C2A 2116   5.291   6.096   0.925
   41POPC    OH 2117   5.412   6.097   0.949
   41POPC   C2B 2118   5.187   6.173   0.998
   41POPC   C2C 2119   5.203   6.172   1.151
   41POPC   C2D 2120   5.070   6.201   1.224
   41POPC   C2E 2121   5.080   6.172   1.374
   41POPC   C2F 2122   4.945   6.173   1.448
   41POPC   C2G 2123   4.965   6.156   1.599
   41POPC   C2H 2124   4.840   6.188   1.683
   41POPC   C2I 2125   4.871   6.177   1.833
   41POPC   C2J 2126   4.745   6.178   1.920
   41POPC   C2K 2127   4.776   6.152   2.068
   41POPC   C2L 2128   4.658   6.088   2.142
   41POPC   C2M 2129   4.698   6.051   2.285
   41POPC   C2N 2130   4.590   5.972   2.359
   41POPC   C2O 2131   4.637   5.939   2.501
   41POPC   C2P 2132   4.523   5.884   2.587
   42POPC   CN1 2133   3.347   1.034   0.325
   42POPC   CN2 2134   3.143   0.963   0.420
   42POPC   CN3 2135   3.156   1.004   0.184
   42POPC   NTM 2136   3.201   1.049   0.316
   42POPC    CA 2137   3.169   1.192   0.343
   42POPC    CB 2138   3.028   1.248   0.310
   42POPC    OA 2139   2.918   1.172   0.361
   42POPC     P 2140   2.783   1.252   0.376
   42POPC    OB 2141   2.690   1.199   0.276
   42POPC    OC 2142   2.809   1.395   0.364
   42POPC    OD 2143   2.735   1.223   0.523
   42POPC    CC 2144   2.825   1.257   0.631
   42POPC    CD 2145   2.909   1.138   0.685
   42POPC    OE 2146   2.827   1.033   0.741
   42POPC   C1A 2147   2.871   0.908   0.742
   42POPC    OF 2148   2.939   0.873   0.645
   42POPC   C1B 2149   2.782   0.820   0.821
   42POPC   C1C 2150   2.849   0.711   0.904
   42POPC   C1D 2151   2.866   0.750   1.052
   42POPC   C1E 2152   2.885   0.621   1.132
   42POPC   C1F 2153   2.907   0.642   1.282
   42POPC   C1G 2154   2.908   0.506   1.351
   42POPC   C1H 2155   2.944   0.513   1.500
   42POPC   C1I 2156   2.934   0.373   1.563
   42POPC   C1J 2157   2.940   0.355   1.694
   42POPC   C1K 2158   2.958   0.476   1.788
   42POPC   C1L 2159   2.921   0.447   1.934
   42POPC   C1M 2160   3.016   0.347   2.002
   42POPC   C1N 2161   3.000   0.340   2.154
   42POPC   C1O 2162   2.861   0.296   2.201
   42POPC   C1P 2163   2.858   0.257   2.349
   42POPC   C1Q 2164   2.902   0.370   2.444
   42POPC   C1R 2165   2.890   0.327   2.590
   42POPC    CE 2166   3.020   1.194   0.776
   42POPC    OG 2167   2.981   1.263   0.895
   42POPC   C2A 2168   3.003   1.199   1.010
   42POPC    OH 2169   3.059   1.089   1.011
   42POPC   C2B 2170   2.969   1.282   1.128
   42POPC   C2C 2171   2.917   1.206   1.250
   42POPC   C2D 2172   2.896   1.305   1.365
   42POPC   C2E 2173   2.831   1.240   1.487
   42POPC   C2F 2174   2.813   1.341   1.600
   42POPC   C2G 2175   2.732   1.281   1.715
   42POPC   C2H 2176   2.714   1.379   1.832
   42POPC   C2I 2177   2.611   1.322   1.930
   42POPC   C2J 2178   2.588   1.409   2.054
   42POPC   C2K 2179   2.462   1.357   2.122
   42POPC   C2L 2180   2.431   1.405   2.264
   42POPC   C2M 2181   2.301   1.336   2.306
   42POPC   C2N 2182   2.263   1.349   2.453
   42POPC   C2O 2183   2.137   1.266   2.479
   42POPC   C2P 2184   2.097   1.266   2.626
   43POPC   CN1 2185   0.779   2.121   0.345
   43POPC   CN2 2186   0.639   2.274   0.451
   43POPC   CN3 2187   0.644   2.270   0.212
   43POPC   NTM 2188   0.726   2.256   0.333
   43POPC    CA 2189   0.835   2.357   0.332
   43POPC    CB 2190   0.808   2.509   0.321
   43POPC    OA 2191   0.733   2.552   0.431
   43POPC     P 2192   0.631   2.664   0.387
   43POPC    OB 2193   0.544   2.582   0.303
   43POPC    OC 2194   0.708   2.771   0.324
   43POPC    OD 2195   0.556   2.705   0.518
   43POPC    CC 2196   0.626   2.693   0.643
   43POPC    CD 2197   0.591   2.563   0.718
   43POPC    OE 2198   0.481   2.581   0.810
   43POPC   C1A 2199   0.424   2.475   0.868
   43POPC    OF 2200   0.463   2.362   0.839
   43POPC   C1B 2201   0.306   2.514   0.947
   43POPC   C1C 2202   0.221   2.399   1.003
   43POPC   C1D 2203   0.283   2.342   1.130
   43POPC   C1E 2204   0.178   2.259   1.205
   43POPC   C1F 2205   0.232   2.207   1.338
   43POPC   C1G 2206   0.119   2.145   1.419
   43POPC   C1H 2207   0.166   2.095   1.555
   43POPC   C1I 2208   0.045   2.044   1.633
   43POPC   C1J 2209   0.043   2.044   1.765
   43POPC   C1K 2210   0.164   2.093   1.845
   43POPC   C1L 2211   0.127   2.110   1.993
   43POPC   C1M 2212   0.215   2.022   2.082
   43POPC   C1N 2213   0.194   2.043   2.232
   43POPC   C1O 2214   0.047   2.041   2.277
   43POPC   C1P 2215   0.030   2.018   2.427
   43POPC   C1Q 2216   0.108   2.115   2.515
   43POPC   C1R 2217   0.096   2.079   2.663
   43POPC    CE 2218   0.723   2.510   0.777
   43POPC    OG 2219   0.779   2.589   0.882
   43POPC   C2A 2220   0.751   2.546   1.005
   43POPC    OH 2221   0.733   2.426   1.026
   43POPC   C2B 2222   0.792   2.643   1.107
   43POPC   C2C 2223   0.711   2.627   1.235
   43POPC   C2D 2224   0.773   2.714   1.343
   43POPC   C2E 2225   0.683   2.713   1.466
   43POPC   C2F 2226   0.740   2.806   1.572
   43POPC   C2G 2227   0.635   2.822   1.681
   43POPC   C2H 2228   0.680   2.920   1.788
   43POPC   C2I 2229   0.562   2.939   1.884
   43POPC   C2J 2230   0.596   3.032   1.999
   43POPC   C2K 2231   0.472   3.040   2.089
   43POPC   C2L 2232   0.497   3.125   2.212
   43POPC   C2M 2233   0.372   3.122   2.300
   43POPC   C2N 2234   0.393   3.201   2.429
   43POPC   C2O 2235   0.272   3.184   2.521
   43POPC   C2P 2236   0.294   3.257   2.653
   44POPC   CN1 2237   2.593   3.700   0.363
   44POPC   CN2 2238   2.758   3.555   0.442
   44POPC   CN3 2239   2.756   3.607   0.211
   44POPC   NTM 2240   2.670   3.581   0.327
   44POPC    CA 2241   2.576   3.469   0.299
   44POPC    CB 2242   2.636   3.328   0.283
   44POPC    OA 2243   2.689   3.278   0.404
   44POPC     P 2244   2.808   3.177   0.383
   44POPC    OB 2245   2.926   3.255   0.344
   44POPC    OC 2246   2.748   3.092   0.279
   44POPC    OD 2247   2.823   3.108   0.524
   44POPC    CC 2248   2.779   3.176   0.645
   44POPC    CD 2249   2.846   3.305   0.696
   44POPC    OE 2250   2.984   3.296   0.740
   44POPC   C1A 2251   3.042   3.414   0.767
   44POPC    OF 2252   3.025   3.504   0.685
   44POPC   C1B 2253   3.146   3.411   0.873
   44POPC   C1C 2254   3.147   3.540   0.955
   44POPC   C1D 2255   3.076   3.531   1.091
   44POPC   C1E 2256   3.091   3.665   1.165
   44POPC   C1F 2257   3.050   3.662   1.313
   44POPC   C1G 2258   3.083   3.796   1.379
   44POPC   C1H 2259   3.070   3.797   1.531
   44POPC   C1I 2260   3.144   3.917   1.592
   44POPC   C1J 2261   3.167   3.928   1.722
   44POPC   C1K 2262   3.115   3.822   1.820
   44POPC   C1L 2263   3.183   3.819   1.958
   44POPC   C1M 2264   3.170   3.949   2.038
   44POPC   C1N 2265   3.212   3.935   2.185
   44POPC   C1O 2266   3.356   3.887   2.205
   44POPC   C1P 2267   3.406   3.908   2.348
   44POPC   C1Q 2268   3.330   3.828   2.454
   44POPC   C1R 2269   3.381   3.860   2.594
   44POPC    CE 2270   2.751   3.360   0.805
   44POPC    OG 2271   2.740   3.280   0.924
   44POPC   C2A 2272   2.727   3.348   1.038
   44POPC    OH 2273   2.725   3.471   1.037
   44POPC   C2B 2274   2.707   3.263   1.158
   44POPC   C2C 2275   2.785   3.314   1.279
   44POPC   C2D 2276   2.742   3.240   1.405
   44POPC   C2E 2277   2.845   3.260   1.517
   44POPC   C2F 2278   2.804   3.187   1.644
   44POPC   C2G 2279   2.926   3.167   1.734
   44POPC   C2H 2280   2.891   3.092   1.862
   44POPC   C2I 2281   3.020   3.039   1.926
   44POPC   C2J 2282   2.995   2.969   2.060
   44POPC   C2K 2283   3.129   2.917   2.111
   44POPC   C2L 2284   3.126   2.869   2.257
   44POPC   C2M 2285   3.270   2.840   2.299
   44POPC   C2N 2286   3.289   2.729   2.401
   44POPC   C2O 2287   3.254   2.766   2.545
   44POPC   C2P 2288   3.289   2.648   2.637
   45POPC   CN1 2289   3.004   2.323   0.461
   45POPC   CN2 2290   2.821   2.182   0.463
   45POPC   CN3 2291   2.961   2.189   0.265
   45POPC   NTM 2292   2.900   2.265   0.373
   45POPC    CA 2293   2.827   2.373   0.304
   45POPC    CB 2294   2.681   2.358   0.258
   45POPC    OA 2295   2.605   2.344   0.375
   45POPC     P 2296   2.452   2.329   0.351
   45POPC    OB 2297   2.455   2.211   0.262
   45POPC    OC 2298   2.435   2.461   0.290
   45POPC    OD 2299   2.416   2.306   0.503
   45POPC    CC 2300   2.459   2.403   0.599
   45POPC    CD 2301   2.574   2.357   0.692
   45POPC    OE 2302   2.537   2.255   0.788
   45POPC   C1A 2303   2.618   2.153   0.810
   45POPC    OF 2304   2.704   2.123   0.726
   45POPC   C1B 2305   2.572   2.069   0.922
   45POPC   C1C 2306   2.687   2.013   1.006
   45POPC   C1D 2307   2.676   2.061   1.151
   45POPC   C1E 2308   2.781   1.994   1.240
   45POPC   C1F 2309   2.772   2.047   1.383
   45POPC   C1G 2310   2.856   1.963   1.478
   45POPC   C1H 2311   2.845   2.016   1.621
   45POPC   C1I 2312   2.870   1.903   1.721
   45POPC   C1J 2313   2.847   1.920   1.851
   45POPC   C1K 2314   2.804   2.056   1.907
   45POPC   C1L 2315   2.798   2.059   2.061
   45POPC   C1M 2316   2.933   2.025   2.124
   45POPC   C1N 2317   2.946   2.044   2.276
   45POPC   C1O 2318   2.851   1.956   2.358
   45POPC   C1P 2319   2.891   1.950   2.506
   45POPC   C1Q 2320   2.900   2.088   2.571
   45POPC   C1R 2321   2.914   2.079   2.723
   45POPC    CE 2322   2.632   2.484   0.757
   45POPC    OG 2323   2.543   2.552   0.847
   45POPC   C2A 2324   2.566   2.530   0.977
   45POPC    OH 2325   2.680   2.504   1.015
   45POPC   C2B 2326   2.452   2.566   1.063
   45POPC   C2C 2327   2.466   2.522   1.209
   45POPC   C2D 2328   2.329   2.540   1.277
   45POPC   C2E 2329   2.327   2.522   1.429
   45POPC   C2F 2330   2.181   2.527   1.475
   45POPC   C2G 2331   2.161   2.532   1.626
   45POPC   C2H 2332   2.011   2.540   1.658
   45POPC   C2I 2333   1.968   2.446   1.772
   45POPC   C2J 2334   1.938   2.521   1.902
   45POPC   C2K 2335   1.877   2.427   2.006
   45POPC   C2L 2336   1.843   2.501   2.135
   45POPC   C2M 2337   1.790   2.404   2.241
   45POPC   C2N 2338   1.759   2.474   2.373
   45POPC   C2O 2339   1.702   2.374   2.474
   45POPC   C2P 2340   1.672   2.440   2.609
   46POPC   CN1 2341   1.969   4.087   0.121
   46POPC   CN2 2342   1.922   4.210   0.318
   46POPC   CN3 2343   1.993   4.318   0.108
   46POPC   NTM 2344   2.009   4.204   0.199
   46POPC    CA 2345   2.147   4.191   0.249
   46POPC    CB 2346   2.205   4.316   0.318
   46POPC    OA 2347   2.331   4.295   0.377
   46POPC     P 2348   2.395   4.434   0.418
   46POPC    OB 2349   2.288   4.523   0.464
   46POPC    OC 2350   2.462   4.460   0.290
   46POPC    OD 2351   2.487   4.377   0.531
   46POPC    CC 2352   2.432   4.308   0.645
   46POPC    CD 2353   2.299   4.344   0.717
   46POPC    OE 2354   2.308   4.453   0.812
   46POPC   C1A 2355   2.198   4.496   0.876
   46POPC    OF 2356   2.088   4.453   0.841
   46POPC   C1B 2357   2.225   4.604   0.974
   46POPC   C1C 2358   2.108   4.641   1.066
   46POPC   C1D 2359   2.070   4.533   1.167
   46POPC   C1E 2360   1.960   4.585   1.260
   46POPC   C1F 2361   1.902   4.473   1.346
   46POPC   C1G 2362   1.786   4.518   1.435
   46POPC   C1H 2363   1.834   4.570   1.570
   46POPC   C1I 2364   1.717   4.618   1.656
   46POPC   C1J 2365   1.725   4.617   1.788
   46POPC   C1K 2366   1.853   4.568   1.859
   46POPC   C1L 2367   1.831   4.518   2.002
   46POPC   C1M 2368   1.763   4.621   2.093
   46POPC   C1N 2369   1.766   4.580   2.240
   46POPC   C1O 2370   1.690   4.680   2.327
   46POPC   C1P 2371   1.674   4.636   2.473
   46POPC   C1Q 2372   1.807   4.604   2.541
   46POPC   C1R 2373   1.790   4.574   2.690
   46POPC    CE 2374   2.248   4.209   0.773
   46POPC    OG 2375   2.338   4.152   0.869
   46POPC   C2A 2376   2.284   4.136   0.989
   46POPC    OH 2377   2.171   4.089   0.996
   46POPC   C2B 2378   2.384   4.131   1.097
   46POPC   C2C 2379   2.344   4.204   1.225
   46POPC   C2D 2380   2.458   4.179   1.322
   46POPC   C2E 2381   2.443   4.246   1.458
   46POPC   C2F 2382   2.565   4.205   1.542
   46POPC   C2G 2383   2.566   4.274   1.678
   46POPC   C2H 2384   2.685   4.228   1.762
   46POPC   C2I 2385   2.680   4.303   1.895
   46POPC   C2J 2386   2.787   4.266   1.997
   46POPC   C2K 2387   2.770   4.364   2.112
   46POPC   C2L 2388   2.877   4.360   2.220
   46POPC   C2M 2389   2.872   4.495   2.291
   46POPC   C2N 2390   2.953   4.503   2.420
   46POPC   C2O 2391   2.939   4.643   2.479
   46POPC   C2P 2392   3.000   4.653   2.618
   47POPC   CN1 2393   1.102   0.919   0.110
   47POPC   CN2 2394   0.957   0.903   0.299
   47POPC   CN3 2395   0.867   0.889   0.073
   47POPC   NTM 2396   0.968   0.951   0.160
   47POPC    CA 2397   0.959   1.099   0.157
   47POPC    CB 2398   0.826   1.172   0.186
   47POPC    OA 2399   0.765   1.132   0.306
   47POPC     P 2400   0.635   1.215   0.335
   47POPC    OB 2401   0.544   1.129   0.257
   47POPC    OC 2402   0.663   1.352   0.289
   47POPC    OD 2403   0.629   1.199   0.490
   47POPC    CC 2404   0.742   1.248   0.564
   47POPC    CD 2405   0.812   1.139   0.647
   47POPC    OE 2406   0.734   1.098   0.761
   47POPC   C1A 2407   0.759   0.979   0.814
   47POPC    OF 2408   0.813   0.893   0.743
   47POPC   C1B 2409   0.675   0.962   0.935
   47POPC   C1C 2410   0.737   0.899   1.060
   47POPC   C1D 2411   0.854   0.970   1.129
   47POPC   C1E 2412   0.847   0.929   1.277
   47POPC   C1F 2413   0.979   0.895   1.345
   47POPC   C1G 2414   0.945   0.815   1.471
   47POPC   C1H 2415   1.067   0.761   1.544
   47POPC   C1I 2416   1.043   0.621   1.602
   47POPC   C1J 2417   1.008   0.594   1.728
   47POPC   C1K 2418   0.985   0.700   1.836
   47POPC   C1L 2419   1.017   0.651   1.979
   47POPC   C1M 2420   1.166   0.631   2.006
   47POPC   C1N 2421   1.216   0.686   2.141
   47POPC   C1O 2422   1.134   0.644   2.262
   47POPC   C1P 2423   1.201   0.672   2.398
   47POPC   C1Q 2424   1.234   0.819   2.425
   47POPC   C1R 2425   1.282   0.837   2.569
   47POPC    CE 2426   0.953   1.188   0.684
   47POPC    OG 2427   0.969   1.300   0.773
   47POPC   C2A 2428   1.008   1.268   0.897
   47POPC    OH 2429   1.048   1.155   0.924
   47POPC   C2B 2430   1.013   1.383   0.990
   47POPC   C2C 2431   0.975   1.337   1.131
   47POPC   C2D 2432   0.974   1.452   1.232
   47POPC   C2E 2433   0.926   1.400   1.367
   47POPC   C2F 2434   0.922   1.512   1.471
   47POPC   C2G 2435   0.865   1.459   1.603
   47POPC   C2H 2436   0.861   1.569   1.708
   47POPC   C2I 2437   0.788   1.518   1.832
   47POPC   C2J 2438   0.781   1.625   1.941
   47POPC   C2K 2439   0.696   1.573   2.057
   47POPC   C2L 2440   0.696   1.671   2.175
   47POPC   C2M 2441   0.614   1.612   2.289
   47POPC   C2N 2442   0.629   1.696   2.416
   47POPC   C2O 2443   0.555   1.628   2.532
   47POPC   C2P 2444   0.577   1.705   2.662
   48POPC   CN1 2445   4.102   1.894   0.276
   48POPC   CN2 2446   4.290   1.872   0.414
   48POPC   CN3 2447   4.329   1.900   0.181
   48POPC   NTM 2448   4.238   1.839   0.280
   48POPC    CA 2449   4.223   1.694   0.254
   48POPC    CB 2450   4.347   1.602   0.246
   48POPC    OA 2451   4.415   1.606   0.369
   48POPC     P 2452   4.555   1.535   0.363
   48POPC    OB 2453   4.619   1.623   0.264
   48POPC    OC 2454   4.517   1.398   0.330
   48POPC    OD 2455   4.601   1.555   0.513
   48POPC    CC 2456   4.506   1.528   0.618
   48POPC    CD 2457   4.441   1.657   0.672
   48POPC    OE 2458   4.521   1.729   0.768
   48POPC   C1A 2459   4.504   1.861   0.775
   48POPC    OF 2460   4.434   1.919   0.691
   48POPC   C1B 2461   4.599   1.923   0.870
   48POPC   C1C 2462   4.556   1.918   1.017
   48POPC   C1D 2463   4.472   2.040   1.057
   48POPC   C1E 2464   4.505   2.074   1.202
   48POPC   C1F 2465   4.428   2.195   1.255
   48POPC   C1G 2466   4.490   2.241   1.387
   48POPC   C1H 2467   4.383   2.276   1.490
   48POPC   C1I 2468   4.428   2.386   1.587
   48POPC   C1J 2469   4.481   2.366   1.707
   48POPC   C1K 2470   4.503   2.229   1.771
   48POPC   C1L 2471   4.526   2.234   1.923
   48POPC   C1M 2472   4.414   2.309   1.996
   48POPC   C1N 2473   4.372   2.253   2.132
   48POPC   C1O 2474   4.478   2.259   2.242
   48POPC   C1P 2475   4.408   2.236   2.375
   48POPC   C1Q 2476   4.504   2.233   2.494
   48POPC   C1R 2477   4.425   2.236   2.625
   48POPC    CE 2478   4.295   1.626   0.711
   48POPC    OG 2479   4.265   1.533   0.816
   48POPC   C2A 2480   4.266   1.583   0.940
   48POPC    OH 2481   4.287   1.702   0.961
   48POPC   C2B 2482   4.227   1.485   1.044
   48POPC   C2C 2483   4.298   1.518   1.175
   48POPC   C2D 2484   4.252   1.432   1.291
   48POPC   C2E 2485   4.327   1.477   1.415
   48POPC   C2F 2486   4.295   1.394   1.539
   48POPC   C2G 2487   4.379   1.449   1.655
   48POPC   C2H 2488   4.371   1.359   1.779
   48POPC   C2I 2489   4.463   1.415   1.887
   48POPC   C2J 2490   4.477   1.317   2.003
   48POPC   C2K 2491   4.576   1.371   2.106
   48POPC   C2L 2492   4.600   1.270   2.217
   48POPC   C2M 2493   4.702   1.325   2.317
   48POPC   C2N 2494   4.731   1.222   2.427
   48POPC   C2O 2495   4.833   1.278   2.527
   48POPC   C2P 2496   4.863   1.176   2.636
   49POPC   CN1 2497   4.970   4.553   0.258
   49POPC   CN2 2498   5.069   4.693   0.417
   49POPC   CN3 2499   4.962   4.794   0.233
   49POPC   NTM 2500   5.043   4.680   0.272
   49POPC    CA 2501   5.165   4.678   0.188
   49POPC    CB 2502   5.272   4.788   0.205
   49POPC    OA 2503   5.346   4.771   0.325
   49POPC     P 2504   5.415   4.905   0.380
   49POPC    OB 2505   5.282   4.958   0.411
   49POPC    OC 2506   5.481   4.933   0.251
   49POPC    OD 2507   5.485   4.799   0.474
   49POPC    CC 2508   5.457   4.817   0.614
   49POPC    CD 2509   5.327   4.753   0.667
   49POPC    OE 2510   5.257   4.835   0.763
   49POPC   C1A 2511   5.129   4.810   0.787
   49POPC    OF 2512   5.062   4.754   0.699
   49POPC   C1B 2513   5.074   4.893   0.897
   49POPC   C1C 2514   4.978   4.821   0.992
   49POPC   C1D 2515   5.051   4.731   1.092
   49POPC   C1E 2516   4.953   4.669   1.192
   49POPC   C1F 2517   5.023   4.579   1.294
   49POPC   C1G 2518   4.918   4.529   1.393
   49POPC   C1H 2519   4.975   4.458   1.516
   49POPC   C1I 2520   4.857   4.428   1.610
   49POPC   C1J 2521   4.867   4.425   1.743
   49POPC   C1K 2522   4.999   4.449   1.817
   49POPC   C1L 2523   4.980   4.478   1.967
   49POPC   C1M 2524   4.910   4.362   2.038
   49POPC   C1N 2525   4.943   4.346   2.187
   49POPC   C1O 2526   4.883   4.454   2.278
   49POPC   C1P 2527   4.877   4.405   2.423
   49POPC   C1Q 2528   5.013   4.365   2.480
   49POPC   C1R 2529   4.997   4.295   2.616
   49POPC    CE 2530   5.350   4.604   0.698
   49POPC    OG 2531   5.440   4.562   0.802
   49POPC   C2A 2532   5.389   4.550   0.925
   49POPC    OH 2533   5.267   4.561   0.942
   49POPC   C2B 2534   5.489   4.514   1.029
   49POPC   C2C 2535   5.429   4.488   1.168
   49POPC   C2D 2536   5.540   4.453   1.268
   49POPC   C2E 2537   5.499   4.465   1.415
   49POPC   C2F 2538   5.625   4.470   1.501
   49POPC   C2G 2539   5.603   4.510   1.647
   49POPC   C2H 2540   5.738   4.546   1.709
   49POPC   C2I 2541   5.729   4.572   1.860
   49POPC   C2J 2542   5.865   4.610   1.919
   49POPC   C2K 2543   5.851   4.627   2.070
   49POPC   C2L 2544   5.975   4.684   2.140
   49POPC   C2M 2545   5.943   4.700   2.289
   49POPC   C2N 2546   6.053   4.774   2.366
   49POPC   C2O 2547   6.010   4.793   2.512
   49POPC   C2P 2548   6.113   4.875   2.590
   50POPC   CN1 2549   3.809   5.186   0.358
   50POPC   CN2 2550   3.904   5.400   0.344
   50POPC   CN3 2551   3.775   5.324   0.161
   50POPC   NTM 2552   3.870   5.281   0.264
   50POPC    CA 2553   3.980   5.213   0.190
   50POPC    CB 2554   4.128   5.251   0.212
   50POPC    OA 2555   4.168   5.217   0.343
   50POPC     P 2556   4.285   5.303   0.401
   50POPC    OB 2557   4.221   5.433   0.392
   50POPC    OC 2558   4.386   5.261   0.302
   50POPC    OD 2559   4.277   5.226   0.536
   50POPC    CC 2560   4.155   5.241   0.613
   50POPC    CD 2561   4.030   5.289   0.690
   50POPC    OE 2562   4.053   5.407   0.768
   50POPC   C1A 2563   3.955   5.497   0.764
   50POPC    OF 2564   3.879   5.494   0.666
   50POPC   C1B 2565   3.975   5.608   0.857
   50POPC   C1C 2566   3.860   5.632   0.955
   50POPC   C1D 2567   3.891   5.586   1.098
   50POPC   C1E 2568   3.803   5.666   1.193
   50POPC   C1F 2569   3.819   5.629   1.341
   50POPC   C1G 2570   3.719   5.712   1.421
   50POPC   C1H 2571   3.711   5.674   1.569
   50POPC   C1I 2572   3.582   5.732   1.626
   50POPC   C1J 2573   3.569   5.769   1.753
   50POPC   C1K 2574   3.684   5.755   1.853
   50POPC   C1L 2575   3.641   5.788   1.996
   50POPC   C1M 2576   3.544   5.687   2.058
   50POPC   C1N 2577   3.496   5.726   2.199
   50POPC   C1O 2578   3.610   5.758   2.296
   50POPC   C1P 2579   3.575   5.727   2.441
   50POPC   C1Q 2580   3.700   5.741   2.529
   50POPC   C1R 2581   3.674   5.691   2.672
   50POPC    CE 2582   3.952   5.174   0.760
   50POPC    OG 2583   4.014   5.076   0.846
   50POPC   C2A 2584   3.959   5.055   0.967
   50POPC    OH 2585   3.856   5.116   0.996
   50POPC   C2B 2586   4.029   4.957   1.055
   50POPC   C2C 2587   4.014   4.985   1.206
   50POPC   C2D 2588   4.131   4.935   1.292
   50POPC   C2E 2589   4.122   4.985   1.438
   50POPC   C2F 2590   4.255   4.980   1.517
   50POPC   C2G 2591   4.241   5.041   1.657
   50POPC   C2H 2592   4.373   5.052   1.736
   50POPC   C2I 2593   4.350   5.112   1.875
   50POPC   C2J 2594   4.474   5.114   1.966
   50POPC   C2K 2595   4.436   5.152   2.110
   50POPC   C2L 2596   4.540   5.134   2.222
   50POPC   C2M 2597   4.653   5.237   2.225
   50POPC   C2N 2598   4.716   5.246   2.364
   50POPC   C2O 2599   4.810   5.366   2.378
   50POPC   C2P 2600   4.858   5.380   2.523
   51POPC   CN1 2601   1.637   6.207   0.269
   51POPC   CN2 2602   1.803   6.238   0.426
   51POPC   CN3 2603   1.821   6.357   0.223
   51POPC   NTM 2604   1.781   6.229   0.280
   51POPC    CA 2605   1.856   6.115   0.219
   51POPC    CB 2606   2.010   6.112   0.213
   51POPC    OA 2607   2.066   6.128   0.342
   51POPC     P 2608   2.204   6.203   0.339
   51POPC    OB 2609   2.159   6.332   0.281
   51POPC    OC 2610   2.289   6.111   0.265
   51POPC    OD 2611   2.235   6.217   0.493
   51POPC    CC 2612   2.209   6.105   0.578
   51POPC    CD 2613   2.075   6.120   0.652
   51POPC    OE 2614   2.079   6.200   0.772
   51POPC   C1A 2615   1.968   6.267   0.802
   51POPC    OF 2616   1.880   6.281   0.717
   51POPC   C1B 2617   1.983   6.342   0.928
   51POPC   C1C 2618   1.869   6.314   1.027
   51POPC   C1D 2619   1.906   6.214   1.136
   51POPC   C1E 2620   1.786   6.209   1.231
   51POPC   C1F 2621   1.807   6.133   1.362
   51POPC   C1G 2622   1.675   6.147   1.438
   51POPC   C1H 2623   1.672   6.100   1.584
   51POPC   C1I 2624   1.535   6.138   1.639
   51POPC   C1J 2625   1.508   6.155   1.768
   51POPC   C1K 2626   1.611   6.128   1.878
   51POPC   C1L 2627   1.554   6.139   2.021
   51POPC   C1M 2628   1.433   6.049   2.050
   51POPC   C1N 2629   1.420   5.991   2.191
   51POPC   C1O 2630   1.463   6.083   2.305
   51POPC   C1P 2631   1.450   6.019   2.444
   51POPC   C1Q 2632   1.535   5.894   2.465
   51POPC   C1R 2633   1.544   5.860   2.614
   51POPC    CE 2634   2.014   5.980   0.669
   51POPC    OG 2635   2.081   5.891   0.758
   51POPC   C2A 2636   2.028   5.883   0.880
   51POPC    OH 2637   1.908   5.895   0.897
   51POPC   C2B 2638   2.121   5.825   0.978
   51POPC   C2C 2639   2.094   5.874   1.120
   51POPC   C2D 2640   2.212   5.826   1.204
   51POPC   C2E 2641   2.191   5.842   1.354
   51POPC   C2F 2642   2.307   5.769   1.422
   51POPC   C2G 2643   2.303   5.794   1.571
   51POPC   C2H 2644   2.411   5.719   1.647
   51POPC   C2I 2645   2.432   5.796   1.776
   51POPC   C2J 2646   2.520   5.726   1.878
   51POPC   C2K 2647   2.533   5.819   1.999
   51POPC   C2L 2648   2.605   5.751   2.115
   51POPC   C2M 2649   2.603   5.841   2.238
   51POPC   C2N 2650   2.683   5.778   2.352
   51POPC   C2O 2651   2.675   5.863   2.478
   51POPC   C2P 2652   2.763   5.804   2.589
   52POPC   CN1 2653   1.315   5.673   0.398
   52POPC   CN2 2654   1.424   5.876   0.368
   52POPC   CN3 2655   1.265   5.800   0.204
   52POPC   NTM 2656   1.372   5.760   0.294
   52POPC    CA 2657   1.470   5.690   0.209
   52POPC    CB 2658   1.619   5.727   0.217
   52POPC    OA 2659   1.664   5.692   0.345
   52POPC     P 2660   1.799   5.759   0.394
   52POPC    OB 2661   1.746   5.895   0.381
   52POPC    OC 2662   1.866   5.696   0.280
   52POPC    OD 2663   1.745   5.676   0.516
   52POPC    CC 2664   1.762   5.738   0.643
   52POPC    CD 2665   1.636   5.806   0.698
   52POPC    OE 2666   1.665   5.933   0.761
   52POPC   C1A 2667   1.560   6.009   0.788
   52POPC    OF 2668   1.469   6.003   0.706
   52POPC   C1B 2669   1.580   6.115   0.890
   52POPC   C1C 2670   1.449   6.151   0.963
   52POPC   C1D 2671   1.445   6.111   1.111
   52POPC   C1E 2672   1.318   6.163   1.179
   52POPC   C1F 2673   1.317   6.136   1.330
   52POPC   C1G 2674   1.190   6.185   1.400
   52POPC   C1H 2675   1.182   6.143   1.547
   52POPC   C1I 2676   1.057   6.199   1.615
   52POPC   C1J 2677   1.042   6.208   1.748
   52POPC   C1K 2678   1.147   6.157   1.847
   52POPC   C1L 2679   1.159   6.240   1.976
   52POPC   C1M 2680   1.041   6.226   2.071
   52POPC   C1N 2681   1.067   6.159   2.207
   52POPC   C1O 2682   1.131   6.254   2.309
   52POPC   C1P 2683   1.130   6.197   2.451
   52POPC   C1Q 2684   1.209   6.285   2.548
   52POPC   C1R 2685   1.214   6.225   2.689
   52POPC    CE 2686   1.563   5.704   0.787
   52POPC    OG 2687   1.637   5.661   0.902
   52POPC   C2A 2688   1.626   5.740   1.009
   52POPC    OH 2689   1.525   5.808   1.025
   52POPC   C2B 2690   1.729   5.714   1.112
   52POPC   C2C 2691   1.687   5.749   1.255
   52POPC   C2D 2692   1.787   5.684   1.350
   52POPC   C2E 2693   1.789   5.756   1.483
   52POPC   C2F 2694   1.882   5.687   1.581
   52POPC   C2G 2695   1.928   5.788   1.686
   52POPC   C2H 2696   2.011   5.721   1.795
   52POPC   C2I 2697   2.070   5.829   1.884
   52POPC   C2J 2698   2.135   5.775   2.012
   52POPC   C2K 2699   2.183   5.897   2.090
   52POPC   C2L 2700   2.216   5.868   2.236
   52POPC   C2M 2701   2.259   6.001   2.299
   52POPC   C2N 2702   2.295   5.988   2.447
   52POPC   C2O 2703   2.349   6.121   2.498
   52POPC   C2P 2704   2.393   6.110   2.644
   53POPC   CN1 2705   5.980   1.714   0.297
   53POPC   CN2 2706   5.782   1.776   0.406
   53POPC   CN3 2707   5.773   1.723   0.176
   53POPC   NTM 2708   5.855   1.788   0.279
   53POPC    CA 2709   5.884   1.927   0.237
   53POPC    CB 2710   5.773   2.034   0.241
   53POPC    OA 2711   5.747   2.080   0.372
   53POPC     P 2712   5.592   2.111   0.394
   53POPC    OB 2713   5.539   1.975   0.379
   53POPC    OC 2714   5.580   2.206   0.282
   53POPC    OD 2715   5.606   2.174   0.537
   53POPC    CC 2716   5.694   2.125   0.640
   53POPC    CD 2717   5.692   1.984   0.703
   53POPC    OE 2718   5.578   1.949   0.785
   53POPC   C1A 2719   5.557   1.820   0.813
   53POPC    OF 2720   5.625   1.733   0.758
   53POPC   C1B 2721   5.435   1.799   0.896
   53POPC   C1C 2722   5.431   1.671   0.979
   53POPC   C1D 2723   5.510   1.675   1.110
   53POPC   C1E 2724   5.472   1.555   1.197
   53POPC   C1F 2725   5.533   1.558   1.338
   53POPC   C1G 2726   5.477   1.443   1.423
   53POPC   C1H 2727   5.520   1.451   1.571
   53POPC   C1I 2728   5.464   1.332   1.649
   53POPC   C1J 2729   5.423   1.340   1.776
   53POPC   C1K 2730   5.429   1.470   1.856
   53POPC   C1L 2731   5.420   1.452   2.009
   53POPC   C1M 2732   5.541   1.378   2.069
   53POPC   C1N 2733   5.549   1.384   2.222
   53POPC   C1O 2734   5.428   1.325   2.294
   53POPC   C1P 2735   5.455   1.297   2.443
   53POPC   C1Q 2736   5.486   1.423   2.524
   53POPC   C1R 2737   5.515   1.390   2.671
   53POPC    CE 2738   5.830   1.967   0.770
   53POPC    OG 2739   5.881   2.073   0.854
   53POPC   C2A 2740   5.860   2.058   0.985
   53POPC    OH 2741   5.842   1.945   1.031
   53POPC   C2B 2742   5.893   2.179   1.065
   53POPC   C2C 2743   5.891   2.149   1.216
   53POPC   C2D 2744   5.893   2.274   1.304
   53POPC   C2E 2745   5.848   2.234   1.445
   53POPC   C2F 2746   5.827   2.352   1.540
   53POPC   C2G 2747   5.745   2.308   1.661
   53POPC   C2H 2748   5.731   2.419   1.765
   53POPC   C2I 2749   5.633   2.380   1.876
   53POPC   C2J 2750   5.631   2.489   1.984
   53POPC   C2K 2751   5.525   2.462   2.092
   53POPC   C2L 2752   5.531   2.573   2.197
   53POPC   C2M 2753   5.423   2.557   2.304
   53POPC   C2N 2754   5.432   2.672   2.405
   53POPC   C2O 2755   5.325   2.659   2.513
   53POPC   C2P 2756   5.331   2.776   2.611
   54POPC   CN1 2757   4.805   0.768   0.302
   54POPC   CN2 2758   4.701   0.617   0.447
   54POPC   CN3 2759   4.697   0.567   0.217
   54POPC   NTM 2760   4.690   0.677   0.313
   54POPC    CA 2761   4.565   0.756   0.300
   54POPC    CB 2762   4.428   0.685   0.284
   54POPC    OA 2763   4.413   0.591   0.388
   54POPC     P 2764   4.283   0.504   0.376
   54POPC    OB 2765   4.325   0.422   0.261
   54POPC    OC 2766   4.181   0.608   0.367
   54POPC    OD 2767   4.286   0.437   0.519
   54POPC    CC 2768   4.283   0.526   0.632
   54POPC    CD 2769   4.423   0.550   0.692
   54POPC    OE 2770   4.466   0.448   0.784
   54POPC   C1A 2771   4.592   0.407   0.774
   54POPC    OF 2772   4.662   0.434   0.675
   54POPC   C1B 2773   4.630   0.327   0.891
   54POPC   C1C 2774   4.760   0.378   0.953
   54POPC   C1D 2775   4.752   0.358   1.104
   54POPC   C1E 2776   4.887   0.315   1.160
   54POPC   C1F 2777   4.872   0.288   1.309
   54POPC   C1G 2778   4.999   0.223   1.363
   54POPC   C1H 2779   4.988   0.201   1.513
   54POPC   C1I 2780   5.119   0.141   1.566
   54POPC   C1J 2781   5.143   0.141   1.697
   54POPC   C1K 2782   5.040   0.203   1.792
   54POPC   C1L 2783   5.039   0.145   1.934
   54POPC   C1M 2784   5.178   0.142   1.999
   54POPC   C1N 2785   5.174   0.167   2.150
   54POPC   C1O 2786   5.084   0.072   2.229
   54POPC   C1P 2787   5.100   0.104   2.378
   54POPC   C1Q 2788   5.007   0.019   2.465
   54POPC   C1R 2789   5.032   0.048   2.613
   54POPC    CE 2790   4.432   0.694   0.746
   54POPC    OG 2791   4.375   0.723   0.875
   54POPC   C2A 2792   4.455   0.706   0.981
   54POPC    OH 2793   4.577   0.695   0.967
   54POPC   C2B 2794   4.384   0.733   1.108
   54POPC   C2C 2795   4.423   0.637   1.221
   54POPC   C2D 2796   4.334   0.666   1.342
   54POPC   C2E 2797   4.362   0.571   1.458
   54POPC   C2F 2798   4.261   0.594   1.571
   54POPC   C2G 2799   4.287   0.499   1.688
   54POPC   C2H 2800   4.177   0.511   1.794
   54POPC   C2I 2801   4.204   0.413   1.908
   54POPC   C2J 2802   4.089   0.412   2.009
   54POPC   C2K 2803   4.120   0.312   2.120
   54POPC   C2L 2804   4.007   0.303   2.222
   54POPC   C2M 2805   4.048   0.207   2.334
   54POPC   C2N 2806   3.944   0.203   2.446
   54POPC   C2O 2807   3.996   0.118   2.563
   54POPC   C2P 2808   3.895   0.116   2.678
   55POPC   CN1 2809   2.007   0.943   0.142
   55POPC   CN2 2810   1.908   1.000   0.351
   55POPC   CN3 2811   1.796   1.050   0.139
   55POPC   NTM 2812   1.924   1.042   0.210
   55POPC    CA 2813   1.993   1.174   0.214
   55POPC    CB 2814   1.914   1.304   0.241
   55POPC    OA 2815   1.808   1.280   0.331
   55POPC     P 2816   1.715   1.403   0.367
   55POPC    OB 2817   1.618   1.315   0.432
   55POPC    OC 2818   1.699   1.452   0.228
   55POPC    OD 2819   1.827   1.470   0.455
   55POPC    CC 2820   1.811   1.453   0.597
   55POPC    CD 2821   1.876   1.325   0.653
   55POPC    OE 2822   1.814   1.273   0.772
   55POPC   C1A 2823   1.830   1.143   0.794
   55POPC    OF 2824   1.832   1.065   0.697
   55POPC   C1B 2825   1.814   1.112   0.938
   55POPC   C1C 2826   1.925   1.025   0.995
   55POPC   C1D 2827   1.950   1.067   1.140
   55POPC   C1E 2828   2.024   0.959   1.219
   55POPC   C1F 2829   2.069   1.017   1.353
   55POPC   C1G 2830   2.095   0.906   1.454
   55POPC   C1H 2831   2.148   0.964   1.585
   55POPC   C1I 2832   2.121   0.866   1.698
   55POPC   C1J 2833   2.116   0.905   1.825
   55POPC   C1K 2834   2.146   1.049   1.867
   55POPC   C1L 2835   2.208   1.058   2.007
   55POPC   C1M 2836   2.341   0.982   2.017
   55POPC   C1N 2837   2.419   1.005   2.146
   55POPC   C1O 2838   2.351   0.957   2.275
   55POPC   C1P 2839   2.436   0.999   2.394
   55POPC   C1Q 2840   2.369   0.969   2.528
   55POPC   C1R 2841   2.444   1.039   2.642
   55POPC    CE 2842   2.027   1.348   0.665
   55POPC    OG 2843   2.080   1.431   0.770
   55POPC   C2A 2844   2.112   1.373   0.886
   55POPC    OH 2845   2.141   1.254   0.886
   55POPC   C2B 2846   2.152   1.473   0.988
   55POPC   C2C 2847   2.119   1.447   1.136
   55POPC   C2D 2848   2.143   1.579   1.210
   55POPC   C2E 2849   2.110   1.577   1.360
   55POPC   C2F 2850   2.092   1.719   1.415
   55POPC   C2G 2851   2.056   1.716   1.564
   55POPC   C2H 2852   2.026   1.853   1.625
   55POPC   C2I 2853   2.000   1.834   1.775
   55POPC   C2J 2854   1.966   1.959   1.856
   55POPC   C2K 2855   1.956   1.915   2.002
   55POPC   C2L 2856   1.913   2.022   2.103
   55POPC   C2M 2857   1.921   1.957   2.242
   55POPC   C2N 2858   1.868   2.043   2.357
   55POPC   C2O 2859   1.902   1.975   2.490
   55POPC   C2P 2860   1.847   2.050   2.612
   56POPC   CN1 2861   2.808   0.743   0.388
   56POPC   CN2 2862   2.604   0.758   0.503
   56POPC   CN3 2863   2.611   0.655   0.287
   56POPC   NTM 2864   2.665   0.764   0.368
   56POPC    CA 2865   2.647   0.895   0.301
   56POPC    CB 2866   2.506   0.955   0.281
   56POPC    OA 2867   2.443   0.998   0.402
   56POPC     P 2868   2.288   0.998   0.388
   56POPC    OB 2869   2.242   0.860   0.371
   56POPC    OC 2870   2.268   1.087   0.273
   56POPC    OD 2871   2.225   1.077   0.509
   56POPC    CC 2872   2.291   1.098   0.636
   56POPC    CD 2873   2.377   0.992   0.706
   56POPC    OE 2874   2.305   0.918   0.805
   56POPC   C1A 2875   2.348   0.796   0.834
   56POPC    OF 2876   2.421   0.738   0.753
   56POPC   C1B 2877   2.265   0.734   0.940
   56POPC   C1C 2878   2.344   0.652   1.042
   56POPC   C1D 2879   2.408   0.735   1.154
   56POPC   C1E 2880   2.456   0.637   1.260
   56POPC   C1F 2881   2.500   0.701   1.392
   56POPC   C1G 2882   2.522   0.588   1.492
   56POPC   C1H 2883   2.563   0.635   1.631
   56POPC   C1I 2884   2.573   0.514   1.724
   56POPC   C1J 2885   2.554   0.528   1.855
   56POPC   C1K 2886   2.527   0.666   1.914
   56POPC   C1L 2887   2.544   0.673   2.066
   56POPC   C1M 2888   2.689   0.660   2.115
   56POPC   C1N 2889   2.711   0.701   2.261
   56POPC   C1O 2890   2.611   0.640   2.360
   56POPC   C1P 2891   2.657   0.643   2.506
   56POPC   C1Q 2892   2.705   0.779   2.556
   56POPC   C1R 2893   2.740   0.774   2.704
   56POPC    CE 2894   2.508   1.062   0.748
   56POPC    OG 2895   2.507   1.171   0.841
   56POPC   C2A 2896   2.550   1.139   0.963
   56POPC    OH 2897   2.600   1.029   0.987
   56POPC   C2B 2898   2.550   1.251   1.060
   56POPC   C2C 2899   2.480   1.210   1.189
   56POPC   C2D 2900   2.485   1.322   1.294
   56POPC   C2E 2901   2.403   1.280   1.416
   56POPC   C2F 2902   2.404   1.388   1.523
   56POPC   C2G 2903   2.302   1.355   1.632
   56POPC   C2H 2904   2.297   1.464   1.738
   56POPC   C2I 2905   2.183   1.438   1.836
   56POPC   C2J 2906   2.181   1.542   1.948
   56POPC   C2K 2907   2.069   1.508   2.047
   56POPC   C2L 2908   2.075   1.599   2.170
   56POPC   C2M 2909   1.966   1.559   2.270
   56POPC   C2N 2910   1.994   1.622   2.407
   56POPC   C2O 2911   1.891   1.578   2.510
   56POPC   C2P 2912   1.925   1.630   2.650
   57POPC   CN1 2913   2.162   0.520   0.378
   57POPC   CN2 2914   1.970   0.493   0.509
   57POPC   CN3 2915   2.045   0.312   0.376
   57POPC   NTM 2916   2.028   0.458   0.379
   57POPC    CA 2917   1.949   0.510   0.265
   57POPC    CB 2918   1.802   0.467   0.243
   57POPC    OA 2919   1.702   0.527   0.326
   57POPC     P 2920   1.591   0.421   0.365
   57POPC    OB 2921   1.675   0.313   0.417
   57POPC    OC 2922   1.538   0.407   0.227
   57POPC    OD 2923   1.512   0.525   0.456
   57POPC    CC 2924   1.504   0.497   0.599
   57POPC    CD 2925   1.630   0.518   0.685
   57POPC    OE 2926   1.641   0.424   0.793
   57POPC   C1A 2927   1.764   0.400   0.838
   57POPC    OF 2928   1.860   0.422   0.763
   57POPC   C1B 2929   1.767   0.327   0.965
   57POPC   C1C 2930   1.896   0.351   1.043
   57POPC   C1D 2931   1.882   0.454   1.154
   57POPC   C1E 2932   2.007   0.444   1.241
   57POPC   C1F 2933   1.987   0.511   1.376
   57POPC   C1G 2934   2.101   0.470   1.470
   57POPC   C1H 2935   2.074   0.522   1.611
   57POPC   C1I 2936   2.182   0.474   1.709
   57POPC   C1J 2937   2.152   0.465   1.838
   57POPC   C1K 2938   2.011   0.505   1.885
   57POPC   C1L 2939   2.003   0.539   2.035
   57POPC   C1M 2940   2.091   0.657   2.076
   57POPC   C1N 2941   2.054   0.720   2.210
   57POPC   C1O 2942   2.068   0.625   2.329
   57POPC   C1P 2943   2.084   0.700   2.462
   57POPC   C1Q 2944   1.968   0.793   2.496
   57POPC   C1R 2945   1.996   0.869   2.625
   57POPC    CE 2946   1.655   0.665   0.725
   57POPC    OG 2947   1.584   0.730   0.830
   57POPC   C2A 2948   1.653   0.759   0.941
   57POPC    OH 2949   1.772   0.727   0.951
   57POPC   C2B 2950   1.576   0.840   1.040
   57POPC   C2C 2951   1.620   0.844   1.187
   57POPC   C2D 2952   1.515   0.921   1.269
   57POPC   C2E 2953   1.535   0.919   1.421
   57POPC   C2F 2954   1.407   0.967   1.494
   57POPC   C2G 2955   1.413   0.959   1.647
   57POPC   C2H 2956   1.279   1.002   1.709
   57POPC   C2I 2957   1.267   0.991   1.862
   57POPC   C2J 2958   1.125   1.031   1.907
   57POPC   C2K 2959   1.093   1.011   2.056
   57POPC   C2L 2960   0.944   1.038   2.084
   57POPC   C2M 2961   0.869   0.933   2.167
   57POPC   C2N 2962   0.895   0.934   2.318
   57POPC   C2O 2963   0.815   0.823   2.387
   57POPC   C2P 2964   0.844   0.815   2.537
   58POPC   CN1 2965   2.532   2.849   0.454
   58POPC   CN2 2966   2.301   2.868   0.463
   58POPC   CN3 2967   2.405   2.770   0.273
   58POPC   NTM 2968   2.416   2.878   0.371
   58POPC    CA 2969   2.440   3.004   0.299
   58POPC    CB 2970   2.323   3.094   0.254
   58POPC    OA 2971   2.296   3.196   0.348
   58POPC     P 2972   2.144   3.229   0.358
   58POPC    OB 2973   2.077   3.106   0.401
   58POPC    OC 2974   2.108   3.279   0.225
   58POPC    OD 2975   2.153   3.345   0.464
   58POPC    CC 2976   2.155   3.313   0.605
   58POPC    CD 2977   2.251   3.210   0.666
   58POPC    OE 2978   2.181   3.133   0.765
   58POPC   C1A 2979   2.236   3.019   0.805
   58POPC    OF 2980   2.325   2.969   0.736
   58POPC   C1B 2981   2.166   2.957   0.920
   58POPC   C1C 2982   2.266   2.895   1.017
   58POPC   C1D 2983   2.300   2.986   1.136
   58POPC   C1E 2984   2.413   2.922   1.218
   58POPC   C1F 2985   2.433   2.986   1.355
   58POPC   C1G 2986   2.431   2.875   1.460
   58POPC   C1H 2987   2.455   2.920   1.604
   58POPC   C1I 2988   2.412   2.807   1.698
   58POPC   C1J 2989   2.415   2.820   1.830
   58POPC   C1K 2990   2.467   2.947   1.897
   58POPC   C1L 2991   2.515   2.913   2.038
   58POPC   C1M 2992   2.560   3.035   2.120
   58POPC   C1N 2993   2.630   2.997   2.251
   58POPC   C1O 2994   2.547   2.901   2.338
   58POPC   C1P 2995   2.604   2.877   2.478
   58POPC   C1Q 2996   2.578   2.997   2.569
   58POPC   C1R 2997   2.621   2.967   2.713
   58POPC    CE 2998   2.383   3.277   0.711
   58POPC    OG 2999   2.376   3.371   0.819
   58POPC   C2A 3000   2.391   3.321   0.943
   58POPC    OH 3001   2.448   3.213   0.956
   58POPC   C2B 3002   2.370   3.419   1.052
   58POPC   C2C 3003   2.332   3.351   1.184
   58POPC   C2D 3004   2.346   3.444   1.304
   58POPC   C2E 3005   2.310   3.375   1.437
   58POPC   C2F 3006   2.304   3.480   1.548
   58POPC   C2G 3007   2.257   3.426   1.684
   58POPC   C2H 3008   2.197   3.543   1.763
   58POPC   C2I 3009   2.157   3.509   1.907
   58POPC   C2J 3010   2.069   3.622   1.962
   58POPC   C2K 3011   2.027   3.599   2.107
   58POPC   C2L 3012   1.895   3.674   2.133
   58POPC   C2M 3013   1.836   3.659   2.274
   58POPC   C2N 3014   1.928   3.711   2.385
   58POPC   C2O 3015   1.856   3.708   2.520
   58POPC   C2P 3016   1.941   3.770   2.631
   59POPC   CN1 3017   1.949   1.888   0.228
   59POPC   CN2 3018   1.956   2.034   0.409
   59POPC   CN3 3019   1.863   2.111   0.204
   59POPC   NTM 3020   1.969   2.029   0.263
   59POPC    CA 3021   2.104   2.072   0.220
   59POPC    CB 3022   2.147   2.220   0.227
   59POPC    OA 3023   2.149   2.277   0.358
   59POPC     P 3024   2.085   2.422   0.370
   59POPC    OB 3025   1.996   2.426   0.253
   59POPC    OC 3026   2.183   2.531   0.381
   59POPC    OD 3027   2.014   2.409   0.508
   59POPC    CC 3028   2.095   2.367   0.619
   59POPC    CD 3029   2.047   2.234   0.682
   59POPC    OE 3030   1.932   2.251   0.768
   59POPC   C1A 3031   1.835   2.160   0.765
   59POPC    OF 3032   1.840   2.062   0.690
   59POPC   C1B 3033   1.717   2.205   0.842
   59POPC   C1C 3034   1.659   2.103   0.941
   59POPC   C1D 3035   1.719   2.111   1.082
   59POPC   C1E 3036   1.623   2.039   1.176
   59POPC   C1F 3037   1.672   2.023   1.320
   59POPC   C1G 3038   1.562   1.951   1.399
   59POPC   C1H 3039   1.597   1.925   1.545
   59POPC   C1I 3040   1.476   1.864   1.616
   59POPC   C1J 3041   1.448   1.895   1.742
   59POPC   C1K 3042   1.541   1.991   1.819
   59POPC   C1L 3043   1.529   1.977   1.971
   59POPC   C1M 3044   1.564   1.836   2.021
   59POPC   C1N 3045   1.569   1.821   2.173
   59POPC   C1O 3046   1.435   1.852   2.241
   59POPC   C1P 3047   1.429   1.802   2.386
   59POPC   C1Q 3048   1.530   1.872   2.478
   59POPC   C1R 3049   1.526   1.810   2.618
   59POPC    CE 3050   2.167   2.160   0.743
   59POPC    OG 3051   2.226   2.206   0.865
   59POPC   C2A 3052   2.182   2.151   0.978
   59POPC    OH 3053   2.090   2.068   0.980
   59POPC   C2B 3054   2.261   2.193   1.095
   59POPC   C2C 3055   2.234   2.112   1.223
   59POPC   C2D 3056   2.337   2.151   1.329
   59POPC   C2E 3057   2.288   2.124   1.471
   59POPC   C2F 3058   2.384   2.187   1.572
   59POPC   C2G 3059   2.318   2.199   1.709
   59POPC   C2H 3060   2.387   2.303   1.798
   59POPC   C2I 3061   2.303   2.325   1.924
   59POPC   C2J 3062   2.321   2.463   1.986
   59POPC   C2K 3063   2.240   2.474   2.115
   59POPC   C2L 3064   2.244   2.615   2.176
   59POPC   C2M 3065   2.164   2.619   2.306
   59POPC   C2N 3066   2.252   2.658   2.425
   59POPC   C2O 3067   2.168   2.674   2.551
   59POPC   C2P 3068   2.254   2.721   2.669
   60POPC   CN1 3069   2.168   4.905   0.176
   60POPC   CN2 3070   2.080   5.033   0.354
   60POPC   CN3 3071   1.961   5.018   0.145
   60POPC   NTM 3072   2.094   5.028   0.207
   60POPC    CA 3073   2.171   5.140   0.149
   60POPC    CB 3074   2.129   5.287   0.169
   60POPC    OA 3075   2.115   5.322   0.307
   60POPC     P 3076   2.196   5.455   0.344
   60POPC    OB 3077   2.122   5.537   0.248
   60POPC    OC 3078   2.323   5.389   0.313
   60POPC    OD 3079   2.143   5.441   0.490
   60POPC    CC 3080   2.211   5.353   0.581
   60POPC    CD 3081   2.114   5.281   0.677
   60POPC    OE 3082   2.059   5.369   0.777
   60POPC   C1A 3083   1.930   5.354   0.805
   60POPC    OF 3084   1.855   5.297   0.725
   60POPC   C1B 3085   1.890   5.438   0.919
   60POPC   C1C 3086   1.773   5.373   0.991
   60POPC   C1D 3087   1.804   5.361   1.140
   60POPC   C1E 3088   1.675   5.323   1.212
   60POPC   C1F 3089   1.700   5.292   1.358
   60POPC   C1G 3090   1.577   5.222   1.413
   60POPC   C1H 3091   1.604   5.177   1.556
   60POPC   C1I 3092   1.477   5.119   1.615
   60POPC   C1J 3093   1.460   5.132   1.746
   60POPC   C1K 3094   1.570   5.198   1.829
   60POPC   C1L 3095   1.550   5.181   1.980
   60POPC   C1M 3096   1.535   5.035   2.022
   60POPC   C1N 3097   1.536   5.015   2.174
   60POPC   C1O 3098   1.428   5.097   2.246
   60POPC   C1P 3099   1.420   5.059   2.395
   60POPC   C1Q 3100   1.551   5.085   2.470
   60POPC   C1R 3101   1.543   5.029   2.612
   60POPC    CE 3102   2.166   5.143   0.725
   60POPC    OG 3103   2.277   5.122   0.814
   60POPC   C2A 3104   2.246   5.113   0.944
   60POPC    OH 3105   2.129   5.095   0.977
   60POPC   C2B 3106   2.363   5.102   1.037
   60POPC   C2C 3107   2.324   5.078   1.184
   60POPC   C2D 3108   2.439   5.108   1.282
   60POPC   C2E 3109   2.390   5.109   1.428
   60POPC   C2F 3110   2.491   5.172   1.526
   60POPC   C2G 3111   2.424   5.200   1.662
   60POPC   C2H 3112   2.515   5.263   1.768
   60POPC   C2I 3113   2.431   5.303   1.890
   60POPC   C2J 3114   2.511   5.349   2.013
   60POPC   C2K 3115   2.416   5.400   2.122
   60POPC   C2L 3116   2.483   5.427   2.257
   60POPC   C2M 3117   2.387   5.501   2.351
   60POPC   C2N 3118   2.447   5.526   2.489
   60POPC   C2O 3119   2.357   5.619   2.571
   60POPC   C2P 3120   2.417   5.650   2.708
   61POPC   CN1 3121   4.646   5.939   0.166
   61POPC   CN2 3122   4.742   6.021   0.361
   61POPC   CN3 3123   4.746   6.156   0.166
   61POPC   NTM 3124   4.757   6.018   0.214
   61POPC    CA 3125   4.877   5.942   0.171
   61POPC    CB 3126   5.015   6.010   0.177
   61POPC    OA 3127   5.035   6.056   0.308
   61POPC     P 3128   5.141   6.166   0.326
   61POPC    OB 3129   5.096   6.261   0.221
   61POPC    OC 3130   5.277   6.114   0.314
   61POPC    OD 3131   5.091   6.216   0.467
   61POPC    CC 3132   5.077   6.112   0.568
   61POPC    CD 3133   4.946   6.112   0.650
   61POPC    OE 3134   4.939   6.223   0.740
   61POPC   C1A 3135   4.819   6.279   0.748
   61POPC    OF 3136   4.748   6.285   0.648
   61POPC   C1B 3137   4.805   6.351   0.876
   61POPC   C1C 3138   4.692   6.291   0.958
   61POPC   C1D 3139   4.724   6.300   1.107
   61POPC   C1E 3140   4.607   6.362   1.182
   61POPC   C1F 3141   4.620   6.344   1.333
   61POPC   C1G 3142   4.502   6.414   1.400
   61POPC   C1H 3143   4.491   6.378   1.548
   61POPC   C1I 3144   4.361   6.436   1.603
   61POPC   C1J 3145   4.341   6.434   1.734
   61POPC   C1K 3146   4.450   6.371   1.822
   61POPC   C1L 3147   4.427   6.388   1.973
   61POPC   C1M 3148   4.297   6.322   2.020
   61POPC   C1N 3149   4.309   6.256   2.157
   61POPC   C1O 3150   4.362   6.345   2.269
   61POPC   C1P 3151   4.357   6.269   2.401
   61POPC   C1Q 3152   4.429   6.346   2.512
   61POPC   C1R 3153   4.424   6.265   2.643
   61POPC    CE 3154   4.908   5.976   0.717
   61POPC    OG 3155   4.989   5.904   0.812
   61POPC   C2A 3156   4.970   5.917   0.943
   61POPC    OH 3157   4.884   5.994   0.986
   61POPC   C2B 3158   5.064   5.836   1.028
   61POPC   C2C 3159   5.035   5.837   1.179
   61POPC   C2D 3160   5.158   5.800   1.263
   61POPC   C2E 3161   5.126   5.805   1.413
   61POPC   C2F 3162   5.248   5.842   1.499
   61POPC   C2G 3163   5.209   5.865   1.646
   61POPC   C2H 3164   5.315   5.948   1.720
   61POPC   C2I 3165   5.273   5.983   1.863
   61POPC   C2J 3166   5.374   6.079   1.927
   61POPC   C2K 3167   5.341   6.111   2.073
   61POPC   C2L 3168   5.445   6.207   2.131
   61POPC   C2M 3169   5.420   6.236   2.279
   61POPC   C2N 3170   5.527   6.328   2.337
   61POPC   C2O 3171   5.503   6.354   2.486
   61POPC   C2P 3172   5.620   6.431   2.548
   62POPC   CN1 3173   3.443   2.700   0.441
   62POPC   CN2 3174   3.515   2.504   0.547
   62POPC   CN3 3175   3.618   2.575   0.346
   62POPC   NTM 3176   3.489   2.564   0.415
   62POPC    CA 3177   3.386   2.495   0.336
   62POPC    CB 3178   3.395   2.344   0.304
   62POPC    OA 3179   3.380   2.262   0.418
   62POPC     P 3180   3.382   2.107   0.383
   62POPC    OB 3181   3.457   2.095   0.257
   62POPC    OC 3182   3.237   2.093   0.376
   62POPC    OD 3183   3.450   2.056   0.515
   62POPC    CC 3184   3.380   2.077   0.638
   62POPC    CD 3185   3.458   2.164   0.737
   62POPC    OE 3186   3.526   2.095   0.846
   62POPC   C1A 3187   3.624   2.164   0.905
   62POPC    OF 3188   3.656   2.273   0.859
   62POPC   C1B 3189   3.678   2.106   1.030
   62POPC   C1C 3190   3.816   2.166   1.058
   62POPC   C1D 3191   3.855   2.179   1.205
   62POPC   C1E 3192   3.993   2.245   1.214
   62POPC   C1F 3193   4.019   2.316   1.348
   62POPC   C1G 3194   3.998   2.224   1.468
   62POPC   C1H 3195   3.970   2.304   1.596
   62POPC   C1I 3196   4.093   2.348   1.673
   62POPC   C1J 3197   4.107   2.304   1.798
   62POPC   C1K 3198   3.998   2.215   1.859
   62POPC   C1L 3199   3.997   2.227   2.012
   62POPC   C1M 3200   3.951   2.365   2.059
   62POPC   C1N 3201   4.011   2.402   2.195
   62POPC   C1O 3202   3.963   2.313   2.310
   62POPC   C1P 3203   4.028   2.359   2.440
   62POPC   C1Q 3204   3.967   2.289   2.561
   62POPC   C1R 3205   4.030   2.338   2.691
   62POPC    CE 3206   3.361   2.276   0.780
   62POPC    OG 3207   3.306   2.276   0.913
   62POPC   C2A 3208   3.375   2.339   1.008
   62POPC    OH 3209   3.445   2.435   0.977
   62POPC   C2B 3210   3.317   2.319   1.143
   62POPC   C2C 3211   3.361   2.193   1.219
   62POPC   C2D 3212   3.272   2.180   1.343
   62POPC   C2E 3213   3.332   2.092   1.452
   62POPC   C2F 3214   3.236   2.083   1.571
   62POPC   C2G 3215   3.308   2.029   1.695
   62POPC   C2H 3216   3.209   1.992   1.806
   62POPC   C2I 3217   3.283   1.946   1.931
   62POPC   C2J 3218   3.208   1.835   2.004
   62POPC   C2K 3219   3.279   1.800   2.134
   62POPC   C2L 3220   3.217   1.678   2.203
   62POPC   C2M 3221   3.306   1.636   2.320
   62POPC   C2N 3222   3.254   1.511   2.390
   62POPC   C2O 3223   3.350   1.468   2.500
   62POPC   C2P 3224   3.299   1.344   2.574
   63POPC   CN1 3225   1.780   3.367   0.529
   63POPC   CN2 3226   1.677   3.559   0.439
   63POPC   CN3 3227   1.657   3.347   0.329
   63POPC   NTM 3228   1.748   3.435   0.402
   63POPC    CA 3229   1.872   3.451   0.322
   63POPC    CB 3230   1.937   3.587   0.285
   63POPC    OA 3231   1.979   3.664   0.396
   63POPC     P 3232   1.985   3.817   0.367
   63POPC    OB 3233   1.863   3.844   0.289
   63POPC    OC 3234   2.113   3.848   0.302
   63POPC    OD 3235   1.971   3.897   0.502
   63POPC    CC 3236   2.027   3.841   0.622
   63POPC    CD 3237   1.946   3.728   0.691
   63POPC    OE 3238   1.846   3.770   0.785
   63POPC   C1A 3239   1.754   3.679   0.817
   63POPC    OF 3240   1.723   3.594   0.732
   63POPC   C1B 3241   1.685   3.711   0.943
   63POPC   C1C 3242   1.686   3.599   1.047
   63POPC   C1D 3243   1.691   3.664   1.185
   63POPC   C1E 3244   1.593   3.596   1.281
   63POPC   C1F 3245   1.624   3.630   1.427
   63POPC   C1G 3246   1.524   3.554   1.514
   63POPC   C1H 3247   1.575   3.529   1.656
   63POPC   C1I 3248   1.479   3.429   1.720
   63POPC   C1J 3249   1.461   3.418   1.851
   63POPC   C1K 3250   1.540   3.502   1.952
   63POPC   C1L 3251   1.524   3.451   2.096
   63POPC   C1M 3252   1.381   3.436   2.147
   63POPC   C1N 3253   1.376   3.390   2.293
   63POPC   C1O 3254   1.441   3.491   2.388
   63POPC   C1P 3255   1.426   3.448   2.533
   63POPC   C1Q 3256   1.502   3.543   2.626
   63POPC   C1R 3257   1.495   3.496   2.772
   63POPC    CE 3258   2.049   3.629   0.747
   63POPC    OG 3259   2.141   3.684   0.842
   63POPC   C2A 3260   2.108   3.664   0.969
   63POPC    OH 3261   2.038   3.567   1.001
   63POPC   C2B 3262   2.192   3.744   1.060
   63POPC   C2C 3263   2.138   3.754   1.203
   63POPC   C2D 3264   2.247   3.817   1.289
   63POPC   C2E 3265   2.210   3.818   1.437
   63POPC   C2F 3266   2.324   3.873   1.522
   63POPC   C2G 3267   2.278   3.889   1.666
   63POPC   C2H 3268   2.384   3.946   1.760
   63POPC   C2I 3269   2.310   4.010   1.877
   63POPC   C2J 3270   2.395   4.087   1.978
   63POPC   C2K 3271   2.315   4.210   2.022
   63POPC   C2L 3272   2.364   4.268   2.155
   63POPC   C2M 3273   2.259   4.365   2.209
   63POPC   C2N 3274   2.279   4.386   2.359
   63POPC   C2O 3275   2.162   4.463   2.421
   63POPC   C2P 3276   2.176   4.471   2.573
   64POPC   CN1 3277   4.946   5.208   0.172
   64POPC   CN2 3278   5.042   5.280   0.374
   64POPC   CN3 3279   5.088   5.401   0.177
   64POPC   NTM 3280   5.067   5.265   0.230
   64POPC    CA 3281   5.184   5.176   0.205
   64POPC    CB 3282   5.328   5.229   0.222
   64POPC    OA 3283   5.339   5.294   0.346
   64POPC     P 3284   5.468   5.379   0.360
   64POPC    OB 3285   5.458   5.470   0.243
   64POPC    OC 3286   5.571   5.276   0.362
   64POPC    OD 3287   5.447   5.447   0.500
   64POPC    CC 3288   5.426   5.359   0.612
   64POPC    CD 3289   5.281   5.323   0.652
   64POPC    OE 3290   5.212   5.424   0.729
   64POPC   C1A 3291   5.081   5.415   0.750
   64POPC    OF 3292   5.011   5.348   0.674
   64POPC   C1B 3293   5.035   5.518   0.847
   64POPC   C1C 3294   4.934   5.472   0.952
   64POPC   C1D 3295   4.993   5.464   1.093
   64POPC   C1E 3296   4.885   5.510   1.193
   64POPC   C1F 3297   4.919   5.494   1.341
   64POPC   C1G 3298   4.799   5.550   1.418
   64POPC   C1H 3299   4.788   5.514   1.567
   64POPC   C1I 3300   4.640   5.486   1.597
   64POPC   C1J 3301   4.583   5.471   1.716
   64POPC   C1K 3302   4.664   5.481   1.845
   64POPC   C1L 3303   4.579   5.470   1.972
   64POPC   C1M 3304   4.478   5.582   1.999
   64POPC   C1N 3305   4.399   5.554   2.127
   64POPC   C1O 3306   4.482   5.575   2.254
   64POPC   C1P 3307   4.412   5.509   2.374
   64POPC   C1Q 3308   4.491   5.527   2.503
   64POPC   C1R 3309   4.431   5.444   2.617
   64POPC    CE 3310   5.287   5.186   0.724
   64POPC    OG 3311   5.345   5.189   0.855
   64POPC   C2A 3312   5.262   5.213   0.956
   64POPC    OH 3313   5.141   5.196   0.947
   64POPC   C2B 3314   5.336   5.245   1.080
   64POPC   C2C 3315   5.264   5.218   1.211
   64POPC   C2D 3316   5.366   5.249   1.320
   64POPC   C2E 3317   5.313   5.227   1.462
   64POPC   C2F 3318   5.432   5.247   1.556
   64POPC   C2G 3319   5.387   5.259   1.701
   64POPC   C2H 3320   5.506   5.294   1.788
   64POPC   C2I 3321   5.458   5.329   1.928
   64POPC   C2J 3322   5.575   5.359   2.021
   64POPC   C2K 3323   5.519   5.410   2.154
   64POPC   C2L 3324   5.628   5.428   2.258
   64POPC   C2M 3325   5.567   5.487   2.385
   64POPC   C2N 3326   5.670   5.493   2.498
   64POPC   C2O 3327   5.610   5.560   2.621
   64POPC   C2P 3328   5.711   5.566   2.735
   65POPC   CN1 3329   5.091   4.452   5.602
   65POPC   CN2 3330   5.261   4.294   5.613
   65POPC   CN3 3331   5.144   4.337   5.810
   65POPC   NTM 3332   5.197   4.402   5.690
   65POPC    CA 3333   5.278   4.520   5.729
   65POPC    CB 3334   5.429   4.509   5.757
   65POPC    OA 3335   5.494   4.478   5.637
   65POPC     P 3336   5.626   4.392   5.651
   65POPC    OB 3337   5.576   4.288   5.743
   65POPC    OC 3338   5.721   4.493   5.699
   65POPC    OD 3339   5.639   4.346   5.500
   65POPC    CC 3340   5.600   4.432   5.391
   65POPC    CD 3341   5.460   4.400   5.334
   65POPC    OE 3342   5.456   4.287   5.244
   65POPC   C1A 3343   5.345   4.213   5.240
   65POPC    OF 3344   5.256   4.233   5.323
   65POPC   C1B 3345   5.363   4.090   5.158
   65POPC   C1C 3346   5.240   4.044   5.080
   65POPC   C1D 3347   5.245   4.095   4.936
   65POPC   C1E 3348   5.150   4.014   4.847
   65POPC   C1F 3349   5.163   4.056   4.701
   65POPC   C1G 3350   5.071   3.974   4.611
   65POPC   C1H 3351   5.075   4.029   4.468
   65POPC   C1I 3352   4.976   3.956   4.377
   65POPC   C1J 3353   4.993   3.957   4.246
   65POPC   C1K 3354   5.113   4.033   4.187
   65POPC   C1L 3355   5.123   4.026   4.034
   65POPC   C1M 3356   5.007   4.099   3.965
   65POPC   C1N 3357   5.026   4.121   3.815
   65POPC   C1O 3358   5.041   3.990   3.736
   65POPC   C1P 3359   5.000   4.003   3.589
   65POPC   C1Q 3360   5.085   4.103   3.510
   65POPC   C1R 3361   5.036   4.111   3.365
   65POPC    CE 3362   5.390   4.530   5.291
   65POPC    OG 3363   5.444   4.604   5.180
   65POPC   C2A 3364   5.388   4.578   5.062
   65POPC    OH 3365   5.291   4.503   5.051
   65POPC   C2B 3366   5.447   4.658   4.952
   65POPC   C2C 3367   5.442   4.581   4.820
   65POPC   C2D 3368   5.514   4.658   4.709
   65POPC   C2E 3369   5.512   4.575   4.581
   65POPC   C2F 3370   5.598   4.639   4.472
   65POPC   C2G 3371   5.599   4.549   4.349
   65POPC   C2H 3372   5.695   4.600   4.242
   65POPC   C2I 3373   5.698   4.502   4.125
   65POPC   C2J 3374   5.801   4.542   4.020
   65POPC   C2K 3375   5.806   4.436   3.910
   65POPC   C2L 3376   5.914   4.468   3.807
   65POPC   C2M 3377   5.920   4.357   3.702
   65POPC   C2N 3378   6.030   4.385   3.599
   65POPC   C2O 3379   6.037   4.272   3.496
   65POPC   C2P 3380   6.146   4.299   3.393
   66POPC   CN1 3381   1.020   4.846   5.680
   66POPC   CN2 3382   1.024   4.641   5.574
   66POPC   CN3 3383   1.073   4.649   5.806
   66POPC   NTM 3384   1.091   4.719   5.678
   66POPC    CA 3385   1.230   4.743   5.634
   66POPC    CB 3386   1.335   4.632   5.659
   66POPC    OA 3387   1.280   4.502   5.645
   66POPC     P 3388   1.378   4.379   5.648
   66POPC    OB 3389   1.288   4.287   5.718
   66POPC    OC 3390   1.491   4.432   5.728
   66POPC    OD 3391   1.403   4.344   5.496
   66POPC    CC 3392   1.417   4.432   5.382
   66POPC    CD 3393   1.292   4.499   5.318
   66POPC    OE 3394   1.181   4.412   5.285
   66POPC   C1A 3395   1.067   4.467   5.243
   66POPC    OF 3396   1.031   4.570   5.301
   66POPC   C1B 3397   0.978   4.377   5.167
   66POPC   C1C 3398   0.889   4.450   5.064
   66POPC   C1D 3399   0.963   4.495   4.937
   66POPC   C1E 3400   0.862   4.552   4.838
   66POPC   C1F 3401   0.919   4.591   4.700
   66POPC   C1G 3402   0.800   4.640   4.617
   66POPC   C1H 3403   0.825   4.674   4.470
   66POPC   C1I 3404   0.692   4.724   4.413
   66POPC   C1J 3405   0.660   4.716   4.285
   66POPC   C1K 3406   0.759   4.657   4.183
   66POPC   C1L 3407   0.690   4.624   4.051
   66POPC   C1M 3408   0.645   4.747   3.973
   66POPC   C1N 3409   0.701   4.747   3.831
   66POPC   C1O 3410   0.618   4.670   3.728
   66POPC   C1P 3411   0.673   4.704   3.589
   66POPC   C1Q 3412   0.597   4.632   3.478
   66POPC   C1R 3413   0.650   4.669   3.340
   66POPC    CE 3414   1.344   4.585   5.202
   66POPC    OG 3415   1.403   4.511   5.095
   66POPC   C2A 3416   1.340   4.520   4.978
   66POPC    OH 3417   1.257   4.609   4.959
   66POPC   C2B 3418   1.405   4.438   4.872
   66POPC   C2C 3419   1.329   4.440   4.740
   66POPC   C2D 3420   1.426   4.413   4.625
   66POPC   C2E 3421   1.352   4.405   4.492
   66POPC   C2F 3422   1.450   4.389   4.376
   66POPC   C2G 3423   1.377   4.332   4.254
   66POPC   C2H 3424   1.473   4.305   4.138
   66POPC   C2I 3425   1.411   4.198   4.050
   66POPC   C2J 3426   1.497   4.161   3.929
   66POPC   C2K 3427   1.443   4.028   3.875
   66POPC   C2L 3428   1.490   3.988   3.735
   66POPC   C2M 3429   1.412   3.860   3.700
   66POPC   C2N 3430   1.413   3.826   3.551
   66POPC   C2O 3431   1.320   3.707   3.526
   66POPC   C2P 3432   1.314   3.671   3.377
   67POPC   CN1 3433   3.692   5.658   5.720
   67POPC   CN2 3434   3.551   5.793   5.590
   67POPC   CN3 3435   3.523   5.792   5.827
   67POPC   NTM 3436   3.556   5.708   5.710
   67POPC    CA 3437   3.462   5.593   5.700
   67POPC    CB 3438   3.310   5.620   5.695
   67POPC    OA 3439   3.280   5.701   5.584
   67POPC     P 3440   3.157   5.795   5.606
   67POPC    OB 3441   3.196   5.858   5.734
   67POPC    OC 3442   3.057   5.688   5.610
   67POPC    OD 3443   3.177   5.873   5.473
   67POPC    CC 3444   3.158   5.799   5.352
   67POPC    CD 3445   3.284   5.805   5.263
   67POPC    OE 3446   3.281   5.906   5.160
   67POPC   C1A 3447   3.381   5.995   5.166
   67POPC    OF 3448   3.477   5.972   5.240
   67POPC   C1B 3449   3.366   6.112   5.076
   67POPC   C1C 3450   3.501   6.166   5.029
   67POPC   C1D 3451   3.532   6.120   4.887
   67POPC   C1E 3452   3.678   6.142   4.846
   67POPC   C1F 3453   3.689   6.121   4.695
   67POPC   C1G 3454   3.830   6.103   4.638
   67POPC   C1H 3455   3.818   6.047   4.496
   67POPC   C1I 3456   3.951   6.028   4.423
   67POPC   C1J 3457   3.958   5.974   4.301
   67POPC   C1K 3458   3.835   5.919   4.228
   67POPC   C1L 3459   3.827   5.949   4.078
   67POPC   C1M 3460   3.942   5.891   3.994
   67POPC   C1N 3461   3.924   5.911   3.843
   67POPC   C1O 3462   3.924   6.058   3.799
   67POPC   C1P 3463   3.937   6.076   3.647
   67POPC   C1Q 3464   3.822   6.017   3.566
   67POPC   C1R 3465   3.849   6.035   3.416
   67POPC    CE 3466   3.328   5.664   5.222
   67POPC    OG 3467   3.259   5.593   5.118
   67POPC   C2A 3468   3.338   5.525   5.034
   67POPC    OH 3469   3.453   5.496   5.067
   67POPC   C2B 3470   3.269   5.468   4.916
   67POPC   C2C 3471   3.288   5.553   4.789
   67POPC   C2D 3472   3.276   5.464   4.665
   67POPC   C2E 3473   3.304   5.531   4.530
   67POPC   C2F 3474   3.193   5.622   4.477
   67POPC   C2G 3475   3.215   5.648   4.327
   67POPC   C2H 3476   3.095   5.711   4.256
   67POPC   C2I 3477   3.131   5.736   4.109
   67POPC   C2J 3478   3.011   5.784   4.026
   67POPC   C2K 3479   3.057   5.842   3.892
   67POPC   C2L 3480   2.936   5.880   3.806
   67POPC   C2M 3481   2.968   5.981   3.696
   67POPC   C2N 3482   2.938   5.927   3.556
   67POPC   C2O 3483   2.918   6.043   3.458
   67POPC   C2P 3484   2.889   5.997   3.316
   68POPC   CN1 3485   1.690   0.457   5.875
   68POPC   CN2 3486   1.757   0.362   5.667
   68POPC   CN3 3487   1.783   0.235   5.867
   68POPC   NTM 3488   1.789   0.370   5.811
   68POPC    CA 3489   1.924   0.430   5.831
   68POPC    CB 3490   2.052   0.357   5.785
   68POPC    OA 3491   2.034   0.313   5.652
   68POPC     P 3492   2.115   0.182   5.617
   68POPC    OB 3493   2.042   0.099   5.716
   68POPC    OC 3494   2.248   0.238   5.638
   68POPC    OD 3495   2.047   0.173   5.477
   68POPC    CC 3496   2.068   0.280   5.383
   68POPC    CD 3497   1.932   0.322   5.324
   68POPC    OE 3498   1.893   0.238   5.214
   68POPC   C1A 3499   1.768   0.199   5.195
   68POPC    OF 3500   1.688   0.201   5.290
   68POPC   C1B 3501   1.769   0.120   5.069
   68POPC   C1C 3502   1.640   0.075   5.000
   68POPC   C1D 3503   1.560   0.176   4.919
   68POPC   C1E 3504   1.471   0.108   4.814
   68POPC   C1F 3505   1.392   0.208   4.729
   68POPC   C1G 3506   1.344   0.153   4.595
   68POPC   C1H 3507   1.317   0.266   4.494
   68POPC   C1I 3508   1.218   0.221   4.386
   68POPC   C1J 3509   1.234   0.218   4.254
   68POPC   C1K 3510   1.362   0.263   4.183
   68POPC   C1L 3511   1.346   0.278   4.031
   68POPC   C1M 3512   1.254   0.394   3.992
   68POPC   C1N 3513   1.253   0.423   3.841
   68POPC   C1O 3514   1.204   0.306   3.756
   68POPC   C1P 3515   1.174   0.347   3.611
   68POPC   C1Q 3516   1.297   0.397   3.535
   68POPC   C1R 3517   1.257   0.443   3.394
   68POPC    CE 3518   1.942   0.471   5.287
   68POPC    OG 3519   2.022   0.502   5.173
   68POPC   C2A 3520   1.956   0.512   5.058
   68POPC    OH 3521   1.833   0.521   5.056
   68POPC   C2B 3522   2.045   0.540   4.944
   68POPC   C2C 3523   1.991   0.501   4.807
   68POPC   C2D 3524   2.033   0.611   4.709
   68POPC   C2E 3525   1.995   0.588   4.563
   68POPC   C2F 3526   2.074   0.476   4.496
   68POPC   C2G 3527   2.053   0.484   4.345
   68POPC   C2H 3528   2.159   0.405   4.266
   68POPC   C2I 3529   2.124   0.408   4.118
   68POPC   C2J 3530   2.247   0.388   4.029
   68POPC   C2K 3531   2.201   0.324   3.898
   68POPC   C2L 3532   2.294   0.355   3.780
   68POPC   C2M 3533   2.252   0.270   3.661
   68POPC   C2N 3534   2.312   0.319   3.530
   68POPC   C2O 3535   2.269   0.228   3.414
   68POPC   C2P 3536   2.326   0.277   3.281
   69POPC   CN1 3537   1.551   5.001   5.828
   69POPC   CN2 3538   1.596   4.921   5.607
   69POPC   CN3 3539   1.618   4.777   5.793
   69POPC   NTM 3540   1.639   4.915   5.749
   69POPC    CA 3541   1.777   4.971   5.753
   69POPC    CB 3542   1.905   4.883   5.753
   69POPC    OA 3543   1.876   4.758   5.692
   69POPC     P 3544   1.989   4.652   5.673
   69POPC    OB 3545   1.928   4.538   5.746
   69POPC    OC 3546   2.110   4.708   5.734
   69POPC    OD 3547   1.992   4.638   5.517
   69POPC    CC 3548   2.008   4.755   5.435
   69POPC    CD 3549   1.880   4.812   5.368
   69POPC    OE 3550   1.831   4.731   5.259
   69POPC   C1A 3551   1.705   4.744   5.218
   69POPC    OF 3552   1.618   4.761   5.305
   69POPC   C1B 3553   1.689   4.693   5.079
   69POPC   C1C 3554   1.595   4.780   4.995
   69POPC   C1D 3555   1.601   4.755   4.844
   69POPC   C1E 3556   1.476   4.815   4.777
   69POPC   C1F 3557   1.473   4.796   4.625
   69POPC   C1G 3558   1.336   4.831   4.568
   69POPC   C1H 3559   1.332   4.827   4.415
   69POPC   C1I 3560   1.189   4.849   4.365
   69POPC   C1J 3561   1.160   4.868   4.237
   69POPC   C1K 3562   1.268   4.868   4.129
   69POPC   C1L 3563   1.216   4.930   3.998
   69POPC   C1M 3564   1.218   5.083   3.999
   69POPC   C1N 3565   1.160   5.146   3.872
   69POPC   C1O 3566   1.217   5.088   3.743
   69POPC   C1P 3567   1.171   5.164   3.619
   69POPC   C1Q 3568   1.220   5.094   3.492
   69POPC   C1R 3569   1.183   5.174   3.366
   69POPC    CE 3570   1.913   4.958   5.328
   69POPC    OG 3571   2.015   4.972   5.227
   69POPC   C2A 3572   1.973   4.969   5.101
   69POPC    OH 3573   1.853   4.973   5.075
   69POPC   C2B 3574   2.083   4.974   5.002
   69POPC   C2C 3575   2.033   4.948   4.860
   69POPC   C2D 3576   2.120   5.021   4.758
   69POPC   C2E 3577   2.064   4.998   4.618
   69POPC   C2F 3578   2.152   5.060   4.510
   69POPC   C2G 3579   2.111   5.000   4.376
   69POPC   C2H 3580   2.216   5.023   4.268
   69POPC   C2I 3581   2.182   4.929   4.152
   69POPC   C2J 3582   2.277   4.941   4.033
   69POPC   C2K 3583   2.230   4.838   3.930
   69POPC   C2L 3584   2.299   4.851   3.795
   69POPC   C2M 3585   2.237   4.748   3.701
   69POPC   C2N 3586   2.287   4.763   3.557
   69POPC   C2O 3587   2.217   4.659   3.469
   69POPC   C2P 3588   2.253   4.679   3.321
   70POPC   CN1 3589   2.389   5.589   5.743
   70POPC   CN2 3590   2.307   5.456   5.568
   70POPC   CN3 3591   2.220   5.428   5.786
   70POPC   NTM 3592   2.344   5.455   5.711
   70POPC    CA 3593   2.456   5.362   5.737
   70POPC    CB 3594   2.428   5.211   5.746
   70POPC    OA 3595   2.335   5.175   5.644
   70POPC     P 3596   2.308   5.025   5.609
   70POPC    OB 3597   2.165   5.012   5.580
   70POPC    OC 3598   2.356   4.962   5.734
   70POPC    OD 3599   2.413   4.995   5.492
   70POPC    CC 3600   2.507   5.087   5.433
   70POPC    CD 3601   2.482   5.212   5.345
   70POPC    OE 3602   2.390   5.194   5.235
   70POPC   C1A 3603   2.335   5.306   5.188
   70POPC    OF 3604   2.321   5.402   5.265
   70POPC   C1B 3605   2.267   5.283   5.059
   70POPC   C1C 3606   2.275   5.400   4.961
   70POPC   C1D 3607   2.396   5.403   4.869
   70POPC   C1E 3608   2.354   5.488   4.749
   70POPC   C1F 3609   2.463   5.502   4.644
   70POPC   C1G 3610   2.407   5.586   4.529
   70POPC   C1H 3611   2.513   5.615   4.423
   70POPC   C1I 3612   2.484   5.753   4.365
   70POPC   C1J 3613   2.506   5.786   4.239
   70POPC   C1K 3614   2.562   5.686   4.139
   70POPC   C1L 3615   2.522   5.719   3.995
   70POPC   C1M 3616   2.587   5.847   3.942
   70POPC   C1N 3617   2.547   5.878   3.797
   70POPC   C1O 3618   2.593   5.769   3.700
   70POPC   C1P 3619   2.575   5.805   3.553
   70POPC   C1Q 3620   2.643   5.696   3.468
   70POPC   C1R 3621   2.634   5.725   3.319
   70POPC    CE 3622   2.616   5.279   5.304
   70POPC    OG 3623   2.718   5.200   5.239
   70POPC   C2A 3624   2.754   5.238   5.115
   70POPC    OH 3625   2.698   5.331   5.060
   70POPC   C2B 3626   2.864   5.157   5.055
   70POPC   C2C 3627   2.854   5.149   4.902
   70POPC   C2D 3628   2.935   5.036   4.836
   70POPC   C2E 3629   2.898   5.030   4.687
   70POPC   C2F 3630   2.962   4.918   4.604
   70POPC   C2G 3631   2.907   4.923   4.461
   70POPC   C2H 3632   2.970   4.821   4.367
   70POPC   C2I 3633   2.917   4.837   4.224
   70POPC   C2J 3634   2.983   4.740   4.126
   70POPC   C2K 3635   2.940   4.768   3.982
   70POPC   C2L 3636   3.006   4.672   3.882
   70POPC   C2M 3637   2.973   4.711   3.738
   70POPC   C2N 3638   3.011   4.599   3.641
   70POPC   C2O 3639   2.993   4.643   3.495
   70POPC   C2P 3640   3.004   4.524   3.400
   71POPC   CN1 3641   1.996   1.316   5.498
   71POPC   CN2 3642   1.905   1.109   5.464
   71POPC   CN3 3643   1.921   1.181   5.690
   71POPC   NTM 3644   1.989   1.183   5.560
   71POPC    CA 3645   2.124   1.122   5.567
   71POPC    CB 3646   2.148   0.993   5.650
   71POPC    OA 3647   2.041   0.900   5.637
   71POPC     P 3648   2.081   0.746   5.640
   71POPC    OB 3649   1.961   0.697   5.711
   71POPC    OC 3650   2.209   0.745   5.710
   71POPC    OD 3651   2.078   0.706   5.488
   71POPC    CC 3652   2.173   0.753   5.389
   71POPC    CD 3653   2.109   0.859   5.296
   71POPC    OE 3654   2.028   0.806   5.190
   71POPC   C1A 3655   1.915   0.869   5.161
   71POPC    OF 3656   1.846   0.914   5.253
   71POPC   C1B 3657   1.890   0.862   5.015
   71POPC   C1C 3658   1.749   0.876   4.961
   71POPC   C1D 3659   1.767   0.881   4.809
   71POPC   C1E 3660   1.649   0.940   4.733
   71POPC   C1F 3661   1.690   0.952   4.586
   71POPC   C1G 3662   1.589   1.034   4.507
   71POPC   C1H 3663   1.641   1.060   4.366
   71POPC   C1I 3664   1.533   1.130   4.282
   71POPC   C1J 3665   1.526   1.105   4.152
   71POPC   C1K 3666   1.629   1.013   4.086
   71POPC   C1L 3667   1.623   1.012   3.933
   71POPC   C1M 3668   1.636   1.152   3.872
   71POPC   C1N 3669   1.661   1.151   3.721
   71POPC   C1O 3670   1.548   1.088   3.638
   71POPC   C1P 3671   1.571   1.108   3.488
   71POPC   C1Q 3672   1.698   1.038   3.437
   71POPC   C1R 3673   1.721   1.070   3.290
   71POPC    CE 3674   2.215   0.962   5.250
   71POPC    OG 3675   2.306   0.931   5.144
   71POPC   C2A 3676   2.270   0.972   5.022
   71POPC    OH 3677   2.175   1.048   5.006
   71POPC   C2B 3678   2.372   0.932   4.922
   71POPC   C2C 3679   2.367   1.003   4.786
   71POPC   C2D 3680   2.504   0.986   4.720
   71POPC   C2E 3681   2.509   1.030   4.574
   71POPC   C2F 3682   2.629   0.963   4.506
   71POPC   C2G 3683   2.619   0.966   4.354
   71POPC   C2H 3684   2.685   0.841   4.294
   71POPC   C2I 3685   2.654   0.826   4.145
   71POPC   C2J 3686   2.691   0.688   4.092
   71POPC   C2K 3687   2.642   0.676   3.947
   71POPC   C2L 3688   2.689   0.551   3.874
   71POPC   C2M 3689   2.636   0.559   3.731
   71POPC   C2N 3690   2.706   0.463   3.635
   71POPC   C2O 3691   2.659   0.490   3.492
   71POPC   C2P 3692   2.740   0.410   3.390
   72POPC   CN1 3693   1.238   2.929   5.606
   72POPC   CN2 3694   1.016   2.956   5.549
   72POPC   CN3 3695   1.082   2.978   5.779
   72POPC   NTM 3696   1.102   2.902   5.656
   72POPC    CA 3697   1.083   2.758   5.684
   72POPC    CB 3698   0.942   2.704   5.716
   72POPC    OA 3699   0.862   2.711   5.600
   72POPC     P 3700   0.707   2.701   5.627
   72POPC    OB 3701   0.695   2.824   5.708
   72POPC    OC 3702   0.698   2.569   5.691
   72POPC    OD 3703   0.655   2.717   5.479
   72POPC    CC 3704   0.732   2.670   5.367
   72POPC    CD 3705   0.804   2.781   5.287
   72POPC    OE 3706   0.720   2.848   5.190
   72POPC   C1A 3707   0.699   2.979   5.205
   72POPC    OF 3708   0.733   3.035   5.309
   72POPC   C1B 3709   0.604   3.034   5.105
   72POPC   C1C 3710   0.659   3.138   5.006
   72POPC   C1D 3711   0.675   3.080   4.865
   72POPC   C1E 3712   0.664   3.182   4.750
   72POPC   C1F 3713   0.772   3.290   4.753
   72POPC   C1G 3714   0.770   3.394   4.641
   72POPC   C1H 3715   0.818   3.351   4.502
   72POPC   C1I 3716   0.849   3.478   4.422
   72POPC   C1J 3717   0.866   3.488   4.290
   72POPC   C1K 3718   0.858   3.371   4.192
   72POPC   C1L 3719   0.835   3.416   4.047
   72POPC   C1M 3720   0.956   3.490   3.988
   72POPC   C1N 3721   0.946   3.513   3.837
   72POPC   C1O 3722   0.830   3.603   3.794
   72POPC   C1P 3723   0.838   3.642   3.646
   72POPC   C1Q 3724   0.824   3.522   3.552
   72POPC   C1R 3725   0.844   3.563   3.406
   72POPC    CE 3726   0.935   2.720   5.232
   72POPC    OG 3727   0.938   2.676   5.096
   72POPC   C2A 3728   0.977   2.766   5.006
   72POPC    OH 3729   1.031   2.871   5.041
   72POPC   C2B 3730   0.967   2.721   4.866
   72POPC   C2C 3731   0.832   2.754   4.802
   72POPC   C2D 3732   0.824   2.688   4.664
   72POPC   C2E 3733   0.697   2.717   4.585
   72POPC   C2F 3734   0.692   2.626   4.462
   72POPC   C2G 3735   0.607   2.689   4.351
   72POPC   C2H 3736   0.587   2.594   4.233
   72POPC   C2I 3737   0.529   2.672   4.115
   72POPC   C2J 3738   0.456   2.580   4.017
   72POPC   C2K 3739   0.412   2.657   3.892
   72POPC   C2L 3740   0.329   2.568   3.799
   72POPC   C2M 3741   0.290   2.645   3.673
   72POPC   C2N 3742   0.206   2.559   3.579
   72POPC   C2O 3743   0.161   2.639   3.456
   72POPC   C2P 3744   0.077   2.552   3.363
   73POPC   CN1 3745   3.560   4.519   5.854
   73POPC   CN2 3746   3.613   4.358   5.682
   73POPC   CN3 3747   3.540   4.290   5.898
   73POPC   NTM 3748   3.620   4.388   5.826
   73POPC    CA 3749   3.757   4.382   5.885
   73POPC    CB 3750   3.862   4.283   5.832
   73POPC    OA 3751   3.911   4.317   5.703
   73POPC     P 3752   4.034   4.223   5.665
   73POPC    OB 3753   4.046   4.115   5.764
   73POPC    OC 3754   4.144   4.319   5.662
   73POPC    OD 3755   3.994   4.172   5.523
   73POPC    CC 3756   3.999   4.269   5.417
   73POPC    CD 3757   3.879   4.261   5.320
   73POPC    OE 3758   3.901   4.175   5.205
   73POPC   C1A 3759   3.795   4.135   5.134
   73POPC    OF 3760   3.686   4.191   5.151
   73POPC   C1B 3761   3.825   4.030   5.033
   73POPC   C1C 3762   3.710   3.987   4.941
   73POPC   C1D 3763   3.665   4.099   4.847
   73POPC   C1E 3764   3.585   4.047   4.728
   73POPC   C1F 3765   3.549   4.167   4.641
   73POPC   C1G 3766   3.502   4.129   4.501
   73POPC   C1H 3767   3.460   4.253   4.422
   73POPC   C1I 3768   3.315   4.254   4.373
   73POPC   C1J 3769   3.293   4.249   4.242
   73POPC   C1K 3770   3.416   4.249   4.151
   73POPC   C1L 3771   3.385   4.256   4.001
   73POPC   C1M 3772   3.299   4.377   3.962
   73POPC   C1N 3773   3.311   4.412   3.814
   73POPC   C1O 3774   3.290   4.293   3.720
   73POPC   C1P 3775   3.283   4.336   3.573
   73POPC   C1Q 3776   3.408   4.411   3.524
   73POPC   C1R 3777   3.386   4.464   3.383
   73POPC    CE 3778   3.823   4.403   5.296
   73POPC    OG 3779   3.899   4.500   5.222
   73POPC   C2A 3780   3.829   4.568   5.132
   73POPC    OH 3781   3.713   4.599   5.159
   73POPC   C2B 3782   3.912   4.640   5.032
   73POPC   C2C 3783   3.902   4.582   4.891
   73POPC   C2D 3784   3.982   4.662   4.788
   73POPC   C2E 3785   3.988   4.588   4.654
   73POPC   C2F 3786   4.064   4.662   4.544
   73POPC   C2G 3787   4.088   4.569   4.424
   73POPC   C2H 3788   4.145   4.643   4.303
   73POPC   C2I 3789   4.177   4.549   4.187
   73POPC   C2J 3790   4.222   4.628   4.064
   73POPC   C2K 3791   4.256   4.537   3.946
   73POPC   C2L 3792   4.300   4.619   3.825
   73POPC   C2M 3793   4.333   4.529   3.706
   73POPC   C2N 3794   4.385   4.610   3.586
   73POPC   C2O 3795   4.417   4.517   3.469
   73POPC   C2P 3796   4.474   4.594   3.350
   74POPC   CN1 3797   4.439   2.658   5.706
   74POPC   CN2 3798   4.535   2.474   5.596
   74POPC   CN3 3799   4.487   2.452   5.823
   74POPC   NTM 3800   4.534   2.549   5.723
   74POPC    CA 3801   4.659   2.616   5.767
   74POPC    CB 3802   4.801   2.564   5.739
   74POPC    OA 3803   4.829   2.569   5.601
   74POPC     P 3804   4.921   2.446   5.562
   74POPC    OB 3805   4.829   2.339   5.600
   74POPC    OC 3806   5.037   2.466   5.649
   74POPC    OD 3807   4.946   2.465   5.408
   74POPC    CC 3808   4.872   2.560   5.332
   74POPC    CD 3809   4.722   2.535   5.301
   74POPC    OE 3810   4.693   2.436   5.199
   74POPC   C1A 3811   4.578   2.370   5.204
   74POPC    OF 3812   4.491   2.404   5.286
   74POPC   C1B 3813   4.574   2.257   5.108
   74POPC   C1C 3814   4.439   2.227   5.042
   74POPC   C1D 3815   4.426   2.298   4.907
   74POPC   C1E 3816   4.313   2.233   4.827
   74POPC   C1F 3817   4.296   2.297   4.689
   74POPC   C1G 3818   4.190   2.221   4.610
   74POPC   C1H 3819   4.168   2.282   4.472
   74POPC   C1I 3820   4.073   2.195   4.390
   74POPC   C1J 3821   4.091   2.183   4.259
   74POPC   C1K 3822   4.205   2.260   4.192
   74POPC   C1L 3823   4.182   2.285   4.042
   74POPC   C1M 3824   4.058   2.372   4.016
   74POPC   C1N 3825   4.035   2.403   3.867
   74POPC   C1O 3826   4.018   2.278   3.780
   74POPC   C1P 3827   3.959   2.310   3.643
   74POPC   C1Q 3828   4.043   2.409   3.562
   74POPC   C1R 3829   3.977   2.438   3.427
   74POPC    CE 3830   4.663   2.674   5.272
   74POPC    OG 3831   4.728   2.747   5.168
   74POPC   C2A 3832   4.677   2.728   5.047
   74POPC    OH 3833   4.556   2.712   5.033
   74POPC   C2B 3834   4.771   2.771   4.941
   74POPC   C2C 3835   4.754   2.687   4.814
   74POPC   C2D 3836   4.856   2.728   4.709
   74POPC   C2E 3837   4.821   2.662   4.576
   74POPC   C2F 3838   4.924   2.696   4.468
   74POPC   C2G 3839   4.877   2.637   4.335
   74POPC   C2H 3840   4.984   2.646   4.227
   74POPC   C2I 3841   4.931   2.581   4.099
   74POPC   C2J 3842   5.043   2.566   3.996
   74POPC   C2K 3843   4.990   2.500   3.869
   74POPC   C2L 3844   5.103   2.482   3.768
   74POPC   C2M 3845   5.050   2.432   3.634
   74POPC   C2N 3846   5.163   2.425   3.532
   74POPC   C2O 3847   5.112   2.377   3.396
   74POPC   C2P 3848   5.226   2.368   3.296
   75POPC   CN1 3849   1.339   5.562   5.850
   75POPC   CN2 3850   1.449   5.498   5.654
   75POPC   CN3 3851   1.423   5.345   5.837
   75POPC   NTM 3852   1.452   5.484   5.801
   75POPC    CA 3853   1.583   5.523   5.857
   75POPC    CB 3854   1.714   5.451   5.815
   75POPC    OA 3855   1.744   5.458   5.675
   75POPC     P 3856   1.789   5.313   5.627
   75POPC    OB 3857   1.662   5.245   5.649
   75POPC    OC 3858   1.893   5.276   5.725
   75POPC    OD 3859   1.820   5.317   5.475
   75POPC    CC 3860   1.731   5.379   5.380
   75POPC    CD 3861   1.596   5.332   5.321
   75POPC    OE 3862   1.594   5.211   5.242
   75POPC   C1A 3863   1.475   5.151   5.230
   75POPC    OF 3864   1.409   5.136   5.333
   75POPC   C1B 3865   1.457   5.078   5.102
   75POPC   C1C 3866   1.318   5.081   5.038
   75POPC   C1D 3867   1.309   5.158   4.905
   75POPC   C1E 3868   1.196   5.101   4.819
   75POPC   C1F 3869   1.168   5.169   4.684
   75POPC   C1G 3870   1.055   5.092   4.615
   75POPC   C1H 3871   1.004   5.147   4.482
   75POPC   C1I 3872   0.884   5.062   4.436
   75POPC   C1J 3873   0.832   5.063   4.314
   75POPC   C1K 3874   0.888   5.150   4.202
   75POPC   C1L 3875   0.850   5.098   4.063
   75POPC   C1M 3876   0.754   5.194   3.993
   75POPC   C1N 3877   0.774   5.210   3.841
   75POPC   C1O 3878   0.733   5.083   3.765
   75POPC   C1P 3879   0.700   5.104   3.617
   75POPC   C1Q 3880   0.822   5.128   3.529
   75POPC   C1R 3881   0.782   5.138   3.382
   75POPC    CE 3882   1.538   5.452   5.241
   75POPC    OG 3883   1.613   5.531   5.146
   75POPC   C2A 3884   1.587   5.516   5.016
   75POPC    OH 3885   1.497   5.439   4.982
   75POPC   C2B 3886   1.663   5.606   4.923
   75POPC   C2C 3887   1.658   5.558   4.777
   75POPC   C2D 3888   1.788   5.566   4.695
   75POPC   C2E 3889   1.769   5.495   4.560
   75POPC   C2F 3890   1.898   5.465   4.482
   75POPC   C2G 3891   1.863   5.390   4.353
   75POPC   C2H 3892   1.980   5.369   4.256
   75POPC   C2I 3893   1.931   5.288   4.136
   75POPC   C2J 3894   2.030   5.275   4.020
   75POPC   C2K 3895   1.972   5.182   3.913
   75POPC   C2L 3896   2.054   5.177   3.784
   75POPC   C2M 3897   1.989   5.080   3.685
   75POPC   C2N 3898   2.056   5.085   3.547
   75POPC   C2O 3899   1.987   4.989   3.450
   75POPC   C2P 3900   2.043   5.003   3.308
   76POPC   CN1 3901   0.959   5.532   5.946
   76POPC   CN2 3902   0.903   5.435   5.737
   76POPC   CN3 3903   0.796   5.362   5.939
   76POPC   NTM 3904   0.923   5.407   5.880
   76POPC    CA 3905   1.022   5.300   5.909
   76POPC    CB 3906   1.080   5.209   5.797
   76POPC    OA 3907   1.165   5.275   5.704
   76POPC     P 3908   1.208   5.176   5.585
   76POPC    OB 3909   1.076   5.136   5.543
   76POPC    OC 3910   1.287   5.089   5.677
   76POPC    OD 3911   1.274   5.304   5.525
   76POPC    CC 3912   1.214   5.370   5.412
   76POPC    CD 3913   1.099   5.357   5.311
   76POPC    OE 3914   1.084   5.240   5.224
   76POPC   C1A 3915   0.969   5.227   5.155
   76POPC    OF 3916   0.889   5.320   5.158
   76POPC   C1B 3917   0.946   5.102   5.078
   76POPC   C1C 3918   0.816   5.091   4.995
   76POPC   C1D 3919   0.807   5.184   4.873
   76POPC   C1E 3920   0.688   5.164   4.776
   76POPC   C1F 3921   0.694   5.272   4.667
   76POPC   C1G 3922   0.597   5.273   4.547
   76POPC   C1H 3923   0.634   5.388   4.452
   76POPC   C1I 3924   0.546   5.399   4.327
   76POPC   C1J 3925   0.583   5.460   4.214
   76POPC   C1K 3926   0.721   5.523   4.194
   76POPC   C1L 3927   0.759   5.552   4.048
   76POPC   C1M 3928   0.692   5.679   3.993
   76POPC   C1N 3929   0.743   5.726   3.857
   76POPC   C1O 3930   0.692   5.643   3.739
   76POPC   C1P 3931   0.697   5.722   3.607
   76POPC   C1Q 3932   0.839   5.754   3.559
   76POPC   C1R 3933   0.834   5.835   3.429
   76POPC    CE 3934   1.103   5.496   5.245
   76POPC    OG 3935   1.224   5.558   5.195
   76POPC   C2A 3936   1.199   5.632   5.086
   76POPC    OH 3937   1.086   5.676   5.073
   76POPC   C2B 3938   1.310   5.691   5.009
   76POPC   C2C 3939   1.280   5.674   4.859
   76POPC   C2D 3940   1.364   5.761   4.766
   76POPC   C2E 3941   1.358   5.706   4.623
   76POPC   C2F 3942   1.460   5.768   4.527
   76POPC   C2G 3943   1.474   5.678   4.404
   76POPC   C2H 3944   1.578   5.724   4.302
   76POPC   C2I 3945   1.588   5.618   4.192
   76POPC   C2J 3946   1.688   5.656   4.082
   76POPC   C2K 3947   1.689   5.550   3.972
   76POPC   C2L 3948   1.780   5.591   3.856
   76POPC   C2M 3949   1.779   5.486   3.744
   76POPC   C2N 3950   1.865   5.528   3.626
   76POPC   C2O 3951   1.866   5.420   3.518
   76POPC   C2P 3952   1.956   5.456   3.401
   77POPC   CN1 3953   5.338   5.269   5.727
   77POPC   CN2 3954   5.245   5.434   5.588
   77POPC   CN3 3955   5.271   5.478   5.822
   77POPC   NTM 3956   5.237   5.375   5.723
   77POPC    CA 3957   5.105   5.314   5.749
   77POPC    CB 3958   4.975   5.398   5.758
   77POPC    OA 3959   4.954   5.474   5.641
   77POPC     P 3960   4.810   5.535   5.631
   77POPC    OB 3961   4.825   5.650   5.721
   77POPC    OC 3962   4.722   5.422   5.663
   77POPC    OD 3963   4.811   5.575   5.480
   77POPC    CC 3964   4.823   5.468   5.384
   77POPC    CD 3965   4.964   5.448   5.325
   77POPC    OE 3966   5.008   5.558   5.241
   77POPC   C1A 3967   5.139   5.576   5.221
   77POPC    OF 3968   5.218   5.529   5.304
   77POPC   C1B 3969   5.168   5.686   5.126
   77POPC   C1C 3970   5.294   5.671   5.041
   77POPC   C1D 3971   5.270   5.606   4.905
   77POPC   C1E 3972   5.392   5.633   4.816
   77POPC   C1F 3973   5.380   5.578   4.674
   77POPC   C1G 3974   5.500   5.626   4.591
   77POPC   C1H 3975   5.497   5.574   4.447
   77POPC   C1I 3976   5.610   5.637   4.366
   77POPC   C1J 3977   5.594   5.661   4.236
   77POPC   C1K 3978   5.463   5.620   4.167
   77POPC   C1L 3979   5.475   5.608   4.014
   77POPC   C1M 3980   5.574   5.500   3.970
   77POPC   C1N 3981   5.577   5.480   3.818
   77POPC   C1O 3982   5.620   5.605   3.740
   77POPC   C1P 3983   5.637   5.576   3.590
   77POPC   C1Q 3984   5.506   5.536   3.521
   77POPC   C1R 3985   5.530   5.504   3.374
   77POPC    CE 3986   4.965   5.311   5.255
   77POPC    OG 3987   4.876   5.302   5.143
   77POPC   C2A 3988   4.928   5.340   5.026
   77POPC    OH 3989   5.049   5.333   5.007
   77POPC   C2B 3990   4.822   5.355   4.924
   77POPC   C2C 3991   4.875   5.361   4.782
   77POPC   C2D 3992   4.760   5.329   4.686
   77POPC   C2E 3993   4.809   5.345   4.542
   77POPC   C2F 3994   4.704   5.298   4.442
   77POPC   C2G 3995   4.759   5.330   4.303
   77POPC   C2H 3996   4.661   5.296   4.191
   77POPC   C2I 3997   4.717   5.359   4.064
   77POPC   C2J 3998   4.624   5.347   3.944
   77POPC   C2K 3999   4.671   5.445   3.838
   77POPC   C2L 4000   4.581   5.444   3.714
   77POPC   C2M 4001   4.615   5.563   3.625
   77POPC   C2N 4002   4.529   5.564   3.500
   77POPC   C2O 4003   4.555   5.690   3.416
   77POPC   C2P 4004   4.472   5.688   3.288
   78POPC   CN1 4005   0.358   1.888   5.819
   78POPC   CN2 4006   0.290   1.785   5.615
   78POPC   CN3 4007   0.140   1.793   5.795
   78POPC   NTM 4008   0.282   1.777   5.762
   78POPC    CA 4009   0.342   1.652   5.813
   78POPC    CB 4010   0.263   1.520   5.805
   78POPC    OA 4011   0.227   1.489   5.672
   78POPC     P 4012   0.096   1.402   5.663
   78POPC    OB 4013   0.004   1.499   5.723
   78POPC    OC 4014   0.139   1.289   5.746
   78POPC    OD 4015   0.087   1.378   5.507
   78POPC    CC 4016   0.199   1.388   5.418
   78POPC    CD 4017   0.220   1.529   5.357
   78POPC    OE 4018   0.124   1.568   5.258
   78POPC   C1A 4019   0.108   1.698   5.235
   78POPC    OF 4020   0.155   1.781   5.314
   78POPC   C1B 4021   0.013   1.721   5.124
   78POPC   C1C 4022   0.056   1.831   5.028
   78POPC   C1D 4023   0.156   1.791   4.919
   78POPC   C1E 4024   0.162   1.912   4.826
   78POPC   C1F 4025   0.228   1.897   4.689
   78POPC   C1G 4026   0.181   2.020   4.611
   78POPC   C1H 4027   0.229   2.030   4.466
   78POPC   C1I 4028   0.152   2.143   4.398
   78POPC   C1J 4029   0.115   2.131   4.271
   78POPC   C1K 4030   0.156   2.005   4.194
   78POPC   C1L 4031   0.166   2.026   4.042
   78POPC   C1M 4032   0.268   2.134   4.003
   78POPC   C1N 4033   0.296   2.138   3.853
   78POPC   C1O 4034   0.171   2.165   3.767
   78POPC   C1P 4035   0.207   2.180   3.619
   78POPC   C1Q 4036   0.267   2.053   3.558
   78POPC   C1R 4037   0.307   2.078   3.413
   78POPC    CE 4038   0.367   1.545   5.313
   78POPC    OG 4039   0.419   1.460   5.211
   78POPC   C2A 4040   0.458   1.521   5.098
   78POPC    OH 4041   0.476   1.643   5.096
   78POPC   C2B 4042   0.497   1.425   4.993
   78POPC   C2C 4043   0.456   1.469   4.853
   78POPC   C2D 4044   0.463   1.348   4.760
   78POPC   C2E 4045   0.419   1.379   4.617
   78POPC   C2F 4046   0.403   1.249   4.538
   78POPC   C2G 4047   0.352   1.277   4.397
   78POPC   C2H 4048   0.347   1.150   4.312
   78POPC   C2I 4049   0.290   1.187   4.174
   78POPC   C2J 4050   0.300   1.073   4.072
   78POPC   C2K 4051   0.224   1.114   3.946
   78POPC   C2L 4052   0.236   1.009   3.836
   78POPC   C2M 4053   0.136   1.038   3.725
   78POPC   C2N 4054   0.147   0.935   3.613
   78POPC   C2O 4055   0.032   0.951   3.513
   78POPC   C2P 4056   0.045   0.853   3.397
   79POPC   CN1 4057   4.468   1.524   5.747
   79POPC   CN2 4058   4.308   1.526   5.576
   79POPC   CN3 4059   4.240   1.585   5.795
   79POPC   NTM 4060   4.327   1.496   5.719
   79POPC    CA 4061   4.301   1.351   5.744
   79POPC    CB 4062   4.157   1.297   5.761
   79POPC    OA 4063   4.065   1.357   5.670
   79POPC     P 4064   3.930   1.277   5.649
   79POPC    OB 4065   3.823   1.376   5.668
   79POPC    OC 4066   3.932   1.166   5.744
   79POPC    OD 4067   3.934   1.228   5.499
   79POPC    CC 4068   4.053   1.173   5.441
   79POPC    CD 4069   4.138   1.272   5.358
   79POPC    OE 4070   4.067   1.348   5.258
   79POPC   C1A 4071   4.118   1.465   5.220
   79POPC    OF 4072   4.200   1.522   5.293
   79POPC   C1B 4073   4.043   1.528   5.109
   79POPC   C1C 4074   4.132   1.598   5.005
   79POPC   C1D 4075   4.197   1.502   4.905
   79POPC   C1E 4076   4.271   1.585   4.799
   79POPC   C1F 4077   4.316   1.505   4.677
   79POPC   C1G 4078   4.381   1.603   4.579
   79POPC   C1H 4079   4.419   1.545   4.442
   79POPC   C1I 4080   4.489   1.658   4.367
   79POPC   C1J 4081   4.491   1.679   4.235
   79POPC   C1K 4082   4.427   1.589   4.130
   79POPC   C1L 4083   4.475   1.622   3.987
   79POPC   C1M 4084   4.628   1.617   3.968
   79POPC   C1N 4085   4.674   1.561   3.832
   79POPC   C1O 4086   4.614   1.630   3.709
   79POPC   C1P 4087   4.670   1.575   3.577
   79POPC   C1Q 4088   4.635   1.427   3.553
   79POPC   C1R 4089   4.685   1.378   3.417
   79POPC    CE 4090   4.261   1.195   5.307
   79POPC    OG 4091   4.236   1.092   5.211
   79POPC   C2A 4092   4.269   1.121   5.085
   79POPC    OH 4093   4.339   1.218   5.056
   79POPC   C2B 4094   4.217   1.020   4.990
   79POPC   C2C 4095   4.280   1.023   4.851
   79POPC   C2D 4096   4.192   0.938   4.761
   79POPC   C2E 4097   4.242   0.922   4.618
   79POPC   C2F 4098   4.135   0.851   4.536
   79POPC   C2G 4099   4.189   0.816   4.398
   79POPC   C2H 4100   4.094   0.731   4.314
   79POPC   C2I 4101   3.976   0.805   4.251
   79POPC   C2J 4102   3.953   0.739   4.115
   79POPC   C2K 4103   3.851   0.802   4.021
   79POPC   C2L 4104   3.838   0.704   3.905
   79POPC   C2M 4105   3.768   0.754   3.779
   79POPC   C2N 4106   3.767   0.638   3.679
   79POPC   C2O 4107   3.736   0.683   3.536
   79POPC   C2P 4108   3.746   0.565   3.439
   80POPC   CN1 4109   2.729   1.627   5.861
   80POPC   CN2 4110   2.705   1.486   5.670
   80POPC   CN3 4111   2.687   1.391   5.892
   80POPC   NTM 4112   2.754   1.492   5.810
   80POPC    CA 4113   2.901   1.473   5.816
   80POPC    CB 4114   2.966   1.340   5.772
   80POPC    OA 4115   2.927   1.304   5.641
   80POPC     P 4116   2.906   1.149   5.623
   80POPC    OB 4117   2.789   1.138   5.712
   80POPC    OC 4118   3.037   1.101   5.668
   80POPC    OD 4119   2.867   1.145   5.471
   80POPC    CC 4120   2.923   1.239   5.377
   80POPC    CD 4121   2.819   1.343   5.328
   80POPC    OE 4122   2.723   1.291   5.234
   80POPC   C1A 4123   2.593   1.292   5.261
   80POPC    OF 4124   2.548   1.323   5.372
   80POPC   C1B 4125   2.516   1.239   5.145
   80POPC   C1C 4126   2.431   1.344   5.073
   80POPC   C1D 4127   2.431   1.319   4.922
   80POPC   C1E 4128   2.337   1.410   4.842
   80POPC   C1F 4129   2.356   1.387   4.692
   80POPC   C1G 4130   2.287   1.493   4.605
   80POPC   C1H 4131   2.335   1.486   4.460
   80POPC   C1I 4132   2.260   1.589   4.376
   80POPC   C1J 4133   2.251   1.587   4.243
   80POPC   C1K 4134   2.321   1.483   4.155
   80POPC   C1L 4135   2.319   1.520   4.006
   80POPC   C1M 4136   2.385   1.655   3.974
   80POPC   C1N 4137   2.390   1.687   3.824
   80POPC   C1O 4138   2.252   1.681   3.758
   80POPC   C1P 4139   2.248   1.747   3.620
   80POPC   C1Q 4140   2.336   1.679   3.515
   80POPC   C1R 4141   2.325   1.754   3.382
   80POPC    CE 4142   2.894   1.468   5.277
   80POPC    OG 4143   3.000   1.450   5.182
   80POPC   C2A 4144   2.990   1.521   5.070
   80POPC    OH 4145   2.895   1.597   5.050
   80POPC   C2B 4146   3.104   1.500   4.977
   80POPC   C2C 4147   3.057   1.498   4.831
   80POPC   C2D 4148   3.168   1.473   4.729
   80POPC   C2E 4149   3.103   1.467   4.591
   80POPC   C2F 4150   3.194   1.437   4.472
   80POPC   C2G 4151   3.103   1.415   4.350
   80POPC   C2H 4152   3.174   1.374   4.221
   80POPC   C2I 4153   3.074   1.307   4.127
   80POPC   C2J 4154   3.135   1.273   3.991
   80POPC   C2K 4155   3.041   1.187   3.906
   80POPC   C2L 4156   3.096   1.177   3.763
   80POPC   C2M 4157   3.009   1.090   3.673
   80POPC   C2N 4158   3.064   1.093   3.530
   80POPC   C2O 4159   2.991   0.996   3.438
   80POPC   C2P 4160   3.061   0.988   3.302
   81POPC   CN1 4161   3.566   2.798   5.683
   81POPC   CN2 4162   3.726   2.757   5.525
   81POPC   CN3 4163   3.680   2.586   5.681
   81POPC   NTM 4164   3.694   2.731   5.665
   81POPC    CA 4165   3.796   2.790   5.756
   81POPC    CB 4166   3.933   2.723   5.778
   81POPC    OA 4167   4.020   2.724   5.666
   81POPC     P 4168   4.088   2.585   5.638
   81POPC    OB 4169   3.975   2.510   5.584
   81POPC    OC 4170   4.140   2.553   5.773
   81POPC    OD 4171   4.189   2.657   5.541
   81POPC    CC 4172   4.165   2.652   5.398
   81POPC    CD 4173   4.038   2.714   5.338
   81POPC    OE 4174   4.006   2.651   5.212
   81POPC   C1A 4175   3.879   2.646   5.172
   81POPC    OF 4176   3.789   2.678   5.249
   81POPC   C1B 4177   3.868   2.571   5.045
   81POPC   C1C 4178   3.749   2.612   4.958
   81POPC   C1D 4179   3.783   2.711   4.847
   81POPC   C1E 4180   3.664   2.716   4.752
   81POPC   C1F 4181   3.695   2.788   4.621
   81POPC   C1G 4182   3.576   2.776   4.526
   81POPC   C1H 4183   3.608   2.840   4.390
   81POPC   C1I 4184   3.488   2.834   4.295
   81POPC   C1J 4185   3.509   2.833   4.163
   81POPC   C1K 4186   3.652   2.840   4.108
   81POPC   C1L 4187   3.661   2.893   3.965
   81POPC   C1M 4188   3.625   3.042   3.954
   81POPC   C1N 4189   3.649   3.103   3.816
   81POPC   C1O 4190   3.560   3.043   3.706
   81POPC   C1P 4191   3.568   3.121   3.575
   81POPC   C1Q 4192   3.709   3.121   3.513
   81POPC   C1R 4193   3.712   3.206   3.386
   81POPC    CE 4194   4.042   2.869   5.339
   81POPC    OG 4195   4.138   2.935   5.256
   81POPC   C2A 4196   4.102   2.957   5.129
   81POPC    OH 4197   3.983   2.955   5.097
   81POPC   C2B 4198   4.213   3.006   5.044
   81POPC   C2C 4199   4.191   2.977   4.895
   81POPC   C2D 4200   4.305   3.032   4.810
   81POPC   C2E 4201   4.277   3.005   4.662
   81POPC   C2F 4202   4.394   3.048   4.572
   81POPC   C2G 4203   4.365   3.007   4.428
   81POPC   C2H 4204   4.482   3.034   4.334
   81POPC   C2I 4205   4.452   2.971   4.198
   81POPC   C2J 4206   4.566   2.986   4.098
   81POPC   C2K 4207   4.532   2.904   3.973
   81POPC   C2L 4208   4.636   2.916   3.862
   81POPC   C2M 4209   4.592   2.825   3.746
   81POPC   C2N 4210   4.676   2.845   3.620
   81POPC   C2O 4211   4.621   2.756   3.509
   81POPC   C2P 4212   4.686   2.786   3.374
   82POPC   CN1 4213   0.445   1.193   5.751
   82POPC   CN2 4214   0.340   1.051   5.597
   82POPC   CN3 4215   0.305   1.014   5.827
   82POPC   NTM 4216   0.407   1.054   5.729
   82POPC    CA 4217   0.531   0.973   5.737
   82POPC    CB 4218   0.527   0.819   5.721
   82POPC    OA 4219   0.481   0.784   5.593
   82POPC     P 4220   0.385   0.658   5.595
   82POPC    OB 4221   0.297   0.695   5.707
   82POPC    OC 4222   0.483   0.550   5.612
   82POPC    OD 4223   0.321   0.673   5.453
   82POPC    CC 4224   0.404   0.705   5.340
   82POPC    CD 4225   0.392   0.853   5.297
   82POPC    OE 4226   0.283   0.882   5.206
   82POPC   C1A 4227   0.228   1.003   5.211
   82POPC    OF 4228   0.268   1.085   5.295
   82POPC   C1B 4229   0.109   1.014   5.123
   82POPC   C1C 4230   0.075   1.156   5.076
   82POPC   C1D 4231   0.103   1.174   4.926
   82POPC   C1E 4232   0.038   1.303   4.874
   82POPC   C1F 4233   0.061   1.317   4.723
   82POPC   C1G 4234  -0.000   1.444   4.664
   82POPC   C1H 4235   0.043   1.459   4.518
   82POPC   C1I 4236  -0.018   1.580   4.447
   82POPC   C1J 4237  -0.030   1.577   4.314
   82POPC   C1K 4238   0.020   1.454   4.237
   82POPC   C1L 4239   0.035   1.476   4.086
   82POPC   C1M 4240   0.146   1.575   4.048
   82POPC   C1N 4241   0.162   1.589   3.896
   82POPC   C1O 4242   0.035   1.643   3.828
   82POPC   C1P 4243   0.055   1.676   3.680
   82POPC   C1Q 4244   0.090   1.553   3.595
   82POPC   C1R 4245   0.096   1.590   3.447
   82POPC    CE 4246   0.532   0.901   5.252
   82POPC    OG 4247   0.589   0.834   5.139
   82POPC   C2A 4248   0.560   0.889   5.021
   82POPC    OH 4249   0.516   1.003   5.012
   82POPC   C2B 4250   0.609   0.806   4.908
   82POPC   C2C 4251   0.530   0.837   4.781
   82POPC   C2D 4252   0.586   0.756   4.664
   82POPC   C2E 4253   0.507   0.789   4.538
   82POPC   C2F 4254   0.549   0.698   4.423
   82POPC   C2G 4255   0.459   0.725   4.302
   82POPC   C2H 4256   0.485   0.625   4.190
   82POPC   C2I 4257   0.384   0.649   4.078
   82POPC   C2J 4258   0.397   0.544   3.967
   82POPC   C2K 4259   0.287   0.568   3.864
   82POPC   C2L 4260   0.290   0.463   3.753
   82POPC   C2M 4261   0.174   0.488   3.657
   82POPC   C2N 4262   0.172   0.384   3.545
   82POPC   C2O 4263   0.054   0.409   3.451
   82POPC   C2P 4264   0.050   0.306   3.338
   83POPC   CN1 4265   2.106   4.081   5.597
   83POPC   CN2 4266   1.974   3.893   5.583
   83POPC   CN3 4267   2.040   3.963   5.799
   83POPC   NTM 4268   2.085   3.950   5.660
   83POPC    CA 4269   2.209   3.868   5.649
   83POPC    CB 4270   2.219   3.727   5.712
   83POPC    OA 4271   2.108   3.646   5.677
   83POPC     P 4272   2.141   3.494   5.648
   83POPC    OB 4273   2.047   3.431   5.742
   83POPC    OC 4274   2.285   3.477   5.670
   83POPC    OD 4275   2.104   3.476   5.497
   83POPC    CC 4276   2.196   3.522   5.396
   83POPC    CD 4277   2.169   3.664   5.342
   83POPC    OE 4278   2.045   3.674   5.268
   83POPC   C1A 4279   1.995   3.792   5.232
   83POPC    OF 4280   2.025   3.889   5.303
   83POPC   C1B 4281   1.879   3.779   5.140
   83POPC   C1C 4282   1.843   3.904   5.059
   83POPC   C1D 4283   1.933   3.933   4.939
   83POPC   C1E 4284   1.870   4.045   4.855
   83POPC   C1F 4285   1.945   4.075   4.724
   83POPC   C1G 4286   1.861   4.170   4.638
   83POPC   C1H 4287   1.922   4.198   4.500
   83POPC   C1I 4288   1.826   4.282   4.415
   83POPC   C1J 4289   1.827   4.279   4.281
   83POPC   C1K 4290   1.924   4.191   4.202
   83POPC   C1L 4291   1.899   4.188   4.050
   83POPC   C1M 4292   1.928   4.324   3.985
   83POPC   C1N 4293   1.944   4.320   3.832
   83POPC   C1O 4294   1.819   4.275   3.756
   83POPC   C1P 4295   1.827   4.307   3.606
   83POPC   C1Q 4296   1.943   4.235   3.535
   83POPC   C1R 4297   1.950   4.274   3.387
   83POPC    CE 4298   2.298   3.717   5.276
   83POPC    OG 4299   2.337   3.652   5.156
   83POPC   C2A 4300   2.281   3.700   5.045
   83POPC    OH 4301   2.241   3.817   5.042
   83POPC   C2B 4302   2.299   3.610   4.930
   83POPC   C2C 4303   2.300   3.682   4.796
   83POPC   C2D 4304   2.315   3.575   4.689
   83POPC   C2E 4305   2.322   3.633   4.548
   83POPC   C2F 4306   2.316   3.513   4.452
   83POPC   C2G 4307   2.334   3.554   4.307
   83POPC   C2H 4308   2.321   3.430   4.219
   83POPC   C2I 4309   2.345   3.465   4.072
   83POPC   C2J 4310   2.360   3.338   3.988
   83POPC   C2K 4311   2.398   3.376   3.845
   83POPC   C2L 4312   2.439   3.256   3.760
   83POPC   C2M 4313   2.321   3.170   3.713
   83POPC   C2N 4314   2.325   3.160   3.560
   83POPC   C2O 4315   2.218   3.067   3.504
   83POPC   C2P 4316   2.225   3.065   3.351
   84POPC   CN1 4317   0.421   6.281   5.707
   84POPC   CN2 4318   0.450   6.105   5.555
   84POPC   CN3 4319   0.343   6.061   5.763
   84POPC   NTM 4320   0.450   6.138   5.698
   84POPC    CA 4321   0.582   6.115   5.764
   84POPC    CB 4322   0.649   5.975   5.769
   84POPC    OA 4323   0.664   5.920   5.640
   84POPC     P 4324   0.754   5.794   5.622
   84POPC    OB 4325   0.677   5.695   5.699
   84POPC    OC 4326   0.890   5.824   5.673
   84POPC    OD 4327   0.740   5.783   5.466
   84POPC    CC 4328   0.775   5.897   5.384
   84POPC    CD 4329   0.666   5.958   5.292
   84POPC    OE 4330   0.614   5.868   5.191
   84POPC   C1A 4331   0.486   5.883   5.158
   84POPC    OF 4332   0.412   5.946   5.235
   84POPC   C1B 4333   0.446   5.798   5.044
   84POPC   C1C 4334   0.347   5.862   4.946
   84POPC   C1D 4335   0.413   5.956   4.844
   84POPC   C1E 4336   0.307   5.987   4.739
   84POPC   C1F 4337   0.356   6.072   4.622
   84POPC   C1G 4338   0.241   6.080   4.521
   84POPC   C1H 4339   0.278   6.158   4.395
   84POPC   C1I 4340   0.163   6.146   4.294
   84POPC   C1J 4341   0.192   6.130   4.166
   84POPC   C1K 4342   0.338   6.126   4.121
   84POPC   C1L 4343   0.354   6.161   3.973
   84POPC   C1M 4344   0.318   6.306   3.941
   84POPC   C1N 4345   0.324   6.337   3.791
   84POPC   C1O 4346   0.226   6.252   3.710
   84POPC   C1P 4347   0.208   6.301   3.566
   84POPC   C1Q 4348   0.338   6.296   3.485
   84POPC   C1R 4349   0.315   6.348   3.343
   84POPC    CE 4350   0.697   6.101   5.238
   84POPC    OG 4351   0.818   6.138   5.168
   84POPC   C2A 4352   0.808   6.224   5.065
   84POPC    OH 4353   0.700   6.276   5.040
   84POPC   C2B 4354   0.938   6.259   4.999
   84POPC   C2C 4355   0.935   6.256   4.845
   84POPC   C2D 4356   1.072   6.235   4.778
   84POPC   C2E 4357   1.057   6.216   4.626
   84POPC   C2F 4358   1.178   6.157   4.550
   84POPC   C2G 4359   1.142   6.138   4.402
   84POPC   C2H 4360   1.249   6.073   4.313
   84POPC   C2I 4361   1.191   6.050   4.173
   84POPC   C2J 4362   1.289   5.994   4.069
   84POPC   C2K 4363   1.218   5.975   3.935
   84POPC   C2L 4364   1.313   5.933   3.821
   84POPC   C2M 4365   1.235   5.912   3.691
   84POPC   C2N 4366   1.327   5.874   3.575
   84POPC   C2O 4367   1.247   5.845   3.448
   84POPC   C2P 4368   1.339   5.807   3.331
   85POPC   CN1 4369   0.901   4.249   5.817
   85POPC   CN2 4370   0.943   4.100   5.636
   85POPC   CN3 4371   0.849   4.016   5.839
   85POPC   NTM 4372   0.943   4.114   5.783
   85POPC    CA 4373   1.077   4.103   5.844
   85POPC    CB 4374   1.158   3.973   5.832
   85POPC    OA 4375   1.185   3.942   5.697
   85POPC     P 4376   1.197   3.787   5.678
   85POPC    OB 4377   1.063   3.751   5.727
   85POPC    OC 4378   1.317   3.774   5.763
   85POPC    OD 4379   1.216   3.784   5.522
   85POPC    CC 4380   1.288   3.881   5.446
   85POPC    CD 4381   1.196   3.985   5.379
   85POPC    OE 4382   1.113   3.934   5.272
   85POPC   C1A 4383   1.003   4.002   5.241
   85POPC    OF 4384   0.952   4.078   5.324
   85POPC   C1B 4385   0.940   3.947   5.120
   85POPC   C1C 4386   0.894   4.050   5.017
   85POPC   C1D 4387   0.990   4.078   4.901
   85POPC   C1E 4388   0.906   4.149   4.795
   85POPC   C1F 4389   0.969   4.182   4.659
   85POPC   C1G 4390   0.850   4.219   4.571
   85POPC   C1H 4391   0.877   4.255   4.425
   85POPC   C1I 4392   0.742   4.250   4.354
   85POPC   C1J 4393   0.732   4.244   4.221
   85POPC   C1K 4394   0.856   4.255   4.134
   85POPC   C1L 4395   0.817   4.295   3.992
   85POPC   C1M 4396   0.937   4.356   3.920
   85POPC   C1N 4397   0.902   4.415   3.783
   85POPC   C1O 4398   0.852   4.309   3.683
   85POPC   C1P 4399   0.843   4.360   3.539
   85POPC   C1Q 4400   0.973   4.424   3.489
   85POPC   C1R 4401   0.967   4.456   3.340
   85POPC    CE 4402   1.285   4.103   5.337
   85POPC    OG 4403   1.385   4.081   5.237
   85POPC   C2A 4404   1.349   4.115   5.113
   85POPC    OH 4405   1.253   4.189   5.091
   85POPC   C2B 4406   1.451   4.080   5.012
   85POPC   C2C 4407   1.383   4.040   4.881
   85POPC   C2D 4408   1.483   4.043   4.765
   85POPC   C2E 4409   1.415   3.997   4.636
   85POPC   C2F 4410   1.514   4.004   4.520
   85POPC   C2G 4411   1.464   3.920   4.403
   85POPC   C2H 4412   1.572   3.912   4.296
   85POPC   C2I 4413   1.540   3.800   4.197
   85POPC   C2J 4414   1.649   3.793   4.090
   85POPC   C2K 4415   1.619   3.684   3.988
   85POPC   C2L 4416   1.709   3.704   3.866
   85POPC   C2M 4417   1.673   3.609   3.751
   85POPC   C2N 4418   1.739   3.658   3.622
   85POPC   C2O 4419   1.691   3.577   3.501
   85POPC   C2P 4420   1.743   3.638   3.371
   86POPC   CN1 4421   0.327   5.576   5.692
   86POPC   CN2 4422   0.280   5.386   5.559
   86POPC   CN3 4423   0.242   5.377   5.797
   86POPC   NTM 4424   0.329   5.430   5.691
   86POPC    CA 4425   0.469   5.388   5.713
   86POPC    CB 4426   0.516   5.242   5.699
   86POPC    OA 4427   0.658   5.248   5.701
   86POPC     P 4428   0.730   5.131   5.624
   86POPC    OB 4429   0.635   5.035   5.572
   86POPC    OC 4430   0.818   5.091   5.735
   86POPC    OD 4431   0.803   5.223   5.519
   86POPC    CC 4432   0.752   5.323   5.430
   86POPC    CD 4433   0.616   5.343   5.362
   86POPC    OE 4434   0.581   5.254   5.254
   86POPC   C1A 4435   0.457   5.262   5.205
   86POPC    OF 4436   0.368   5.307   5.277
   86POPC   C1B 4437   0.441   5.185   5.079
   86POPC   C1C 4438   0.334   5.239   4.984
   86POPC   C1D 4439   0.378   5.361   4.904
   86POPC   C1E 4440   0.275   5.392   4.795
   86POPC   C1F 4441   0.317   5.505   4.701
   86POPC   C1G 4442   0.216   5.509   4.587
   86POPC   C1H 4443   0.245   5.613   4.479
   86POPC   C1I 4444   0.140   5.598   4.369
   86POPC   C1J 4445   0.160   5.640   4.245
   86POPC   C1K 4446   0.290   5.711   4.205
   86POPC   C1L 4447   0.320   5.705   4.055
   86POPC   C1M 4448   0.209   5.763   3.968
   86POPC   C1N 4449   0.262   5.802   3.830
   86POPC   C1O 4450   0.152   5.789   3.724
   86POPC   C1P 4451   0.180   5.868   3.596
   86POPC   C1Q 4452   0.316   5.836   3.532
   86POPC   C1R 4453   0.335   5.916   3.403
   86POPC    CE 4454   0.614   5.493   5.328
   86POPC    OG 4455   0.718   5.545   5.245
   86POPC   C2A 4456   0.692   5.541   5.114
   86POPC    OH 4457   0.577   5.523   5.073
   86POPC   C2B 4458   0.806   5.582   5.030
   86POPC   C2C 4459   0.793   5.548   4.882
   86POPC   C2D 4460   0.930   5.535   4.814
   86POPC   C2E 4461   0.912   5.544   4.663
   86POPC   C2F 4462   1.041   5.534   4.582
   86POPC   C2G 4463   1.010   5.564   4.436
   86POPC   C2H 4464   1.134   5.553   4.348
   86POPC   C2I 4465   1.101   5.584   4.202
   86POPC   C2J 4466   1.223   5.558   4.114
   86POPC   C2K 4467   1.188   5.561   3.966
   86POPC   C2L 4468   1.314   5.529   3.885
   86POPC   C2M 4469   1.283   5.517   3.736
   86POPC   C2N 4470   1.411   5.485   3.658
   86POPC   C2O 4471   1.380   5.471   3.509
   86POPC   C2P 4472   1.506   5.438   3.429
   87POPC   CN1 4473   1.365   2.547   5.869
   87POPC   CN2 4474   1.449   2.597   5.653
   87POPC   CN3 4475   1.602   2.548   5.825
   87POPC   NTM 4476   1.473   2.613   5.798
   87POPC    CA 4477   1.463   2.753   5.846
   87POPC    CB 4478   1.568   2.860   5.811
   87POPC    OA 4479   1.592   2.856   5.673
   87POPC     P 4480   1.743   2.856   5.631
   87POPC    OB 4481   1.807   2.789   5.747
   87POPC    OC 4482   1.778   2.996   5.612
   87POPC    OD 4483   1.711   2.771   5.505
   87POPC    CC 4484   1.640   2.845   5.404
   87POPC    CD 4485   1.548   2.756   5.320
   87POPC    OE 4486   1.620   2.691   5.214
   87POPC   C1A 4487   1.665   2.569   5.239
   87POPC    OF 4488   1.618   2.501   5.331
   87POPC   C1B 4489   1.779   2.532   5.151
   87POPC   C1C 4490   1.746   2.470   5.015
   87POPC   C1D 4491   1.667   2.556   4.916
   87POPC   C1E 4492   1.668   2.481   4.783
   87POPC   C1F 4493   1.559   2.521   4.684
   87POPC   C1G 4494   1.561   2.417   4.573
   87POPC   C1H 4495   1.443   2.427   4.477
   87POPC   C1I 4496   1.415   2.290   4.414
   87POPC   C1J 4497   1.432   2.267   4.285
   87POPC   C1K 4498   1.484   2.372   4.186
   87POPC   C1L 4499   1.424   2.358   4.046
   87POPC   C1M 4500   1.444   2.218   3.987
   87POPC   C1N 4501   1.380   2.190   3.851
   87POPC   C1O 4502   1.445   2.268   3.737
   87POPC   C1P 4503   1.394   2.215   3.603
   87POPC   C1Q 4504   1.462   2.286   3.486
   87POPC   C1R 4505   1.410   2.232   3.353
   87POPC    CE 4506   1.422   2.836   5.281
   87POPC    OG 4507   1.429   2.924   5.168
   87POPC   C2A 4508   1.381   2.873   5.055
   87POPC    OH 4509   1.326   2.763   5.050
   87POPC   C2B 4510   1.396   2.967   4.942
   87POPC   C2C 4511   1.418   2.898   4.807
   87POPC   C2D 4512   1.426   3.007   4.701
   87POPC   C2E 4513   1.440   2.953   4.559
   87POPC   C2F 4514   1.424   3.069   4.460
   87POPC   C2G 4515   1.459   3.022   4.320
   87POPC   C2H 4516   1.451   3.135   4.217
   87POPC   C2I 4517   1.518   3.083   4.090
   87POPC   C2J 4518   1.523   3.183   3.975
   87POPC   C2K 4519   1.601   3.115   3.863
   87POPC   C2L 4520   1.607   3.196   3.734
   87POPC   C2M 4521   1.688   3.115   3.632
   87POPC   C2N 4522   1.696   3.184   3.497
   87POPC   C2O 4523   1.784   3.103   3.401
   87POPC   C2P 4524   1.799   3.175   3.267
   88POPC   CN1 4525   6.279   4.468   5.667
   88POPC   CN2 4526   6.439   4.568   5.530
   88POPC   CN3 4527   6.491   4.527   5.760
   88POPC   NTM 4528   6.386   4.569   5.667
   88POPC    CA 4529   6.330   4.702   5.701
   88POPC    CB 4530   6.424   4.822   5.727
   88POPC    OA 4531   6.515   4.843   5.620
   88POPC     P 4532   6.594   4.976   5.640
   88POPC    OB 4533   6.680   4.948   5.755
   88POPC    OC 4534   6.491   5.080   5.654
   88POPC    OD 4535   6.666   4.987   5.503
   88POPC    CC 4536   6.585   5.011   5.387
   88POPC    CD 4537   6.567   4.889   5.295
   88POPC    OE 4538   6.652   4.886   5.178
   88POPC   C1A 4539   6.761   4.808   5.180
   88POPC    OF 4540   6.787   4.742   5.280
   88POPC   C1B 4541   6.836   4.807   5.053
   88POPC   C1C 4542   6.821   4.671   4.983
   88POPC   C1D 4543   6.784   4.690   4.836
   88POPC   C1E 4544   6.781   4.555   4.763
   88POPC   C1F 4545   6.738   4.573   4.618
   88POPC   C1G 4546   6.743   4.443   4.538
   88POPC   C1H 4547   6.680   4.467   4.401
   88POPC   C1I 4548   6.699   4.349   4.305
   88POPC   C1J 4549   6.683   4.368   4.175
   88POPC   C1K 4550   6.644   4.506   4.123
   88POPC   C1L 4551   6.644   4.519   3.970
   88POPC   C1M 4552   6.523   4.451   3.904
   88POPC   C1N 4553   6.513   4.471   3.752
   88POPC   C1O 4554   6.637   4.422   3.676
   88POPC   C1P 4555   6.610   4.393   3.528
   88POPC   C1Q 4556   6.564   4.513   3.445
   88POPC   C1R 4557   6.549   4.473   3.298
   88POPC    CE 4558   6.417   4.881   5.263
   88POPC    OG 4559   6.362   4.982   5.178
   88POPC   C2A 4560   6.343   4.943   5.051
   88POPC    OH 4561   6.332   4.823   5.026
   88POPC   C2B 4562   6.300   5.051   4.959
   88POPC   C2C 4563   6.364   5.032   4.821
   88POPC   C2D 4564   6.305   5.126   4.715
   88POPC   C2E 4565   6.391   5.118   4.589
   88POPC   C2F 4566   6.332   5.194   4.470
   88POPC   C2G 4567   6.432   5.184   4.353
   88POPC   C2H 4568   6.381   5.248   4.224
   88POPC   C2I 4569   6.492   5.238   4.119
   88POPC   C2J 4570   6.456   5.308   3.988
   88POPC   C2K 4571   6.577   5.303   3.894
   88POPC   C2L 4572   6.551   5.377   3.763
   88POPC   C2M 4573   6.676   5.372   3.675
   88POPC   C2N 4574   6.654   5.448   3.544
   88POPC   C2O 4575   6.780   5.442   3.457
   88POPC   C2P 4576   6.763   5.526   3.330
   89POPC   CN1 4577   1.605   1.297   5.604
   89POPC   CN2 4578   1.619   1.524   5.561
   89POPC   CN3 4579   1.710   1.453   5.766
   89POPC   NTM 4580   1.602   1.427   5.670
   89POPC    CA 4581   1.476   1.426   5.746
   89POPC    CB 4582   1.382   1.547   5.749
   89POPC    OA 4583   1.327   1.571   5.621
   89POPC     P 4584   1.311   1.725   5.596
   89POPC    OB 4585   1.442   1.774   5.641
   89POPC    OC 4586   1.197   1.753   5.684
   89POPC    OD 4587   1.291   1.749   5.444
   89POPC    CC 4588   1.259   1.639   5.358
   89POPC    CD 4589   1.377   1.570   5.289
   89POPC    OE 4590   1.445   1.656   5.196
   89POPC   C1A 4591   1.578   1.664   5.199
   89POPC    OF 4592   1.644   1.599   5.281
   89POPC   C1B 4593   1.626   1.770   5.108
   89POPC   C1C 4594   1.699   1.717   4.984
   89POPC   C1D 4595   1.620   1.629   4.887
   89POPC   C1E 4596   1.715   1.606   4.770
   89POPC   C1F 4597   1.672   1.518   4.653
   89POPC   C1G 4598   1.791   1.527   4.557
   89POPC   C1H 4599   1.774   1.465   4.419
   89POPC   C1I 4600   1.904   1.494   4.344
   89POPC   C1J 4601   1.908   1.524   4.215
   89POPC   C1K 4602   1.780   1.530   4.132
   89POPC   C1L 4603   1.802   1.586   3.991
   89POPC   C1M 4604   1.886   1.493   3.903
   89POPC   C1N 4605   1.843   1.487   3.756
   89POPC   C1O 4606   1.878   1.612   3.675
   89POPC   C1P 4607   1.906   1.580   3.527
   89POPC   C1Q 4608   1.792   1.509   3.455
   89POPC   C1R 4609   1.825   1.486   3.307
   89POPC    CE 4610   1.332   1.432   5.237
   89POPC    OG 4611   1.239   1.416   5.130
   89POPC   C2A 4612   1.291   1.380   5.012
   89POPC    OH 4613   1.412   1.387   4.991
   89POPC   C2B 4614   1.190   1.342   4.911
   89POPC   C2C 4615   1.241   1.348   4.767
   89POPC   C2D 4616   1.122   1.383   4.678
   89POPC   C2E 4617   1.154   1.396   4.529
   89POPC   C2F 4618   1.046   1.485   4.466
   89POPC   C2G 4619   1.060   1.496   4.315
   89POPC   C2H 4620   0.965   1.600   4.256
   89POPC   C2I 4621   0.991   1.614   4.106
   89POPC   C2J 4622   0.909   1.724   4.040
   89POPC   C2K 4623   0.966   1.751   3.901
   89POPC   C2L 4624   0.879   1.848   3.821
   89POPC   C2M 4625   0.946   1.881   3.688
   89POPC   C2N 4626   0.852   1.960   3.597
   89POPC   C2O 4627   0.919   1.990   3.463
   89POPC   C2P 4628   0.821   2.059   3.368
   90POPC   CN1 4629   3.099   3.131   5.824
   90POPC   CN2 4630   3.193   3.100   5.612
   90POPC   CN3 4631   3.302   3.014   5.804
   90POPC   NTM 4632   3.226   3.129   5.753
   90POPC    CA 4633   3.293   3.261   5.761
   90POPC    CB 4634   3.445   3.275   5.789
   90POPC    OA 4635   3.523   3.177   5.721
   90POPC     P 4636   3.676   3.212   5.697
   90POPC    OB 4637   3.738   3.080   5.697
   90POPC    OC 4638   3.709   3.290   5.819
   90POPC    OD 4639   3.679   3.274   5.551
   90POPC    CC 4640   3.569   3.325   5.472
   90POPC    CD 4641   3.473   3.235   5.392
   90POPC    OE 4642   3.536   3.148   5.295
   90POPC   C1A 4643   3.466   3.047   5.245
   90POPC    OF 4644   3.377   3.000   5.317
   90POPC   C1B 4645   3.534   2.983   5.130
   90POPC   C1C 4646   3.447   2.938   5.011
   90POPC   C1D 4647   3.397   3.048   4.916
   90POPC   C1E 4648   3.347   2.985   4.786
   90POPC   C1F 4649   3.274   3.079   4.690
   90POPC   C1G 4650   3.226   2.999   4.568
   90POPC   C1H 4651   3.123   3.071   4.480
   90POPC   C1I 4652   3.037   2.969   4.403
   90POPC   C1J 4653   3.052   2.941   4.274
   90POPC   C1K 4654   3.157   3.013   4.188
   90POPC   C1L 4655   3.148   2.983   4.037
   90POPC   C1M 4656   3.015   3.026   3.974
   90POPC   C1N 4657   3.021   3.036   3.821
   90POPC   C1O 4658   3.060   2.906   3.751
   90POPC   C1P 4659   3.031   2.913   3.601
   90POPC   C1Q 4660   3.145   2.969   3.516
   90POPC   C1R 4661   3.104   2.967   3.369
   90POPC    CE 4662   3.366   3.329   5.330
   90POPC    OG 4663   3.418   3.417   5.230
   90POPC   C2A 4664   3.395   3.378   5.105
   90POPC    OH 4665   3.293   3.313   5.078
   90POPC   C2B 4666   3.488   3.440   5.008
   90POPC   C2C 4667   3.435   3.450   4.865
   90POPC   C2D 4668   3.530   3.540   4.785
   90POPC   C2E 4669   3.487   3.556   4.640
   90POPC   C2F 4670   3.596   3.634   4.565
   90POPC   C2G 4671   3.579   3.616   4.414
   90POPC   C2H 4672   3.700   3.668   4.337
   90POPC   C2I 4673   3.694   3.613   4.194
   90POPC   C2J 4674   3.808   3.663   4.106
   90POPC   C2K 4675   3.801   3.593   3.970
   90POPC   C2L 4676   3.901   3.652   3.871
   90POPC   C2M 4677   3.893   3.579   3.738
   90POPC   C2N 4678   3.978   3.649   3.632
   90POPC   C2O 4679   3.961   3.582   3.495
   90POPC   C2P 4680   4.040   3.657   3.388
   91POPC   CN1 4681   2.647   4.255   5.557
   91POPC   CN2 4682   2.583   4.037   5.513
   91POPC   CN3 4683   2.485   4.145   5.698
   91POPC   NTM 4684   2.611   4.130   5.624
   91POPC    CA 4685   2.718   4.089   5.718
   91POPC    CB 4686   2.762   3.941   5.734
   91POPC    OA 4687   2.861   3.911   5.639
   91POPC     P 4688   2.866   3.759   5.592
   91POPC    OB 4689   2.729   3.760   5.540
   91POPC    OC 4690   2.894   3.710   5.728
   91POPC    OD 4691   2.987   3.823   5.513
   91POPC    CC 4692   2.979   3.824   5.369
   91POPC    CD 4693   2.884   3.925   5.302
   91POPC    OE 4694   2.817   3.862   5.192
   91POPC   C1A 4695   2.695   3.904   5.161
   91POPC    OF 4696   2.632   3.975   5.241
   91POPC   C1B 4697   2.643   3.835   5.042
   91POPC   C1C 4698   2.548   3.925   4.964
   91POPC   C1D 4699   2.610   3.980   4.836
   91POPC   C1E 4700   2.495   4.039   4.756
   91POPC   C1F 4701   2.535   4.074   4.614
   91POPC   C1G 4702   2.408   4.099   4.533
   91POPC   C1H 4703   2.443   4.128   4.388
   91POPC   C1I 4704   2.317   4.134   4.301
   91POPC   C1J 4705   2.328   4.091   4.176
   91POPC   C1K 4706   2.464   4.040   4.126
   91POPC   C1L 4707   2.475   4.034   3.973
   91POPC   C1M 4708   2.457   4.171   3.907
   91POPC   C1N 4709   2.490   4.170   3.758
   91POPC   C1O 4710   2.384   4.103   3.671
   91POPC   C1P 4711   2.402   4.138   3.522
   91POPC   C1Q 4712   2.531   4.082   3.462
   91POPC   C1R 4713   2.548   4.129   3.318
   91POPC    CE 4714   2.949   4.063   5.276
   91POPC    OG 4715   3.033   4.086   5.161
   91POPC   C2A 4716   2.974   4.129   5.048
   91POPC    OH 4717   2.859   4.172   5.051
   91POPC   C2B 4718   3.069   4.145   4.936
   91POPC   C2C 4719   3.018   4.109   4.796
   91POPC   C2D 4720   3.139   4.081   4.705
   91POPC   C2E 4721   3.101   4.026   4.567
   91POPC   C2F 4722   3.215   3.941   4.510
   91POPC   C2G 4723   3.195   3.912   4.361
   91POPC   C2H 4724   3.318   3.859   4.287
   91POPC   C2I 4725   3.281   3.836   4.140
   91POPC   C2J 4726   3.400   3.809   4.048
   91POPC   C2K 4727   3.351   3.776   3.906
   91POPC   C2L 4728   3.470   3.756   3.812
   91POPC   C2M 4729   3.429   3.695   3.678
   91POPC   C2N 4730   3.554   3.667   3.595
   91POPC   C2O 4731   3.536   3.556   3.490
   91POPC   C2P 4732   3.448   3.597   3.372
   92POPC   CN1 4733   3.143   4.032   5.693
   92POPC   CN2 4734   3.273   3.847   5.627
   92POPC   CN3 4735   3.155   3.835   5.831
   92POPC   NTM 4736   3.229   3.926   5.745
   92POPC    CA 4737   3.332   3.984   5.833
   92POPC    CB 4738   3.481   3.960   5.804
   92POPC    OA 4739   3.526   4.036   5.693
   92POPC     P 4740   3.657   3.967   5.634
   92POPC    OB 4741   3.599   3.835   5.611
   92POPC    OC 4742   3.733   4.002   5.756
   92POPC    OD 4743   3.671   4.068   5.514
   92POPC    CC 4744   3.566   4.110   5.424
   92POPC    CD 4745   3.447   4.044   5.353
   92POPC    OE 4746   3.469   3.948   5.247
   92POPC   C1A 4747   3.361   3.878   5.210
   92POPC    OF 4748   3.273   3.859   5.295
   92POPC   C1B 4749   3.367   3.820   5.073
   92POPC   C1C 4750   3.253   3.724   5.038
   92POPC   C1D 4751   3.164   3.775   4.923
   92POPC   C1E 4752   3.095   3.662   4.844
   92POPC   C1F 4753   2.994   3.718   4.742
   92POPC   C1G 4754   2.991   3.641   4.609
   92POPC   C1H 4755   2.905   3.710   4.502
   92POPC   C1I 4756   2.932   3.650   4.364
   92POPC   C1J 4757   2.917   3.708   4.243
   92POPC   C1K 4758   2.870   3.850   4.209
   92POPC   C1L 4759   2.923   3.889   4.070
   92POPC   C1M 4760   2.888   4.032   4.029
   92POPC   C1N 4761   2.942   4.076   3.891
   92POPC   C1O 4762   2.885   3.989   3.779
   92POPC   C1P 4763   2.865   4.061   3.645
   92POPC   C1Q 4764   2.992   4.087   3.564
   92POPC   C1R 4765   2.956   4.138   3.424
   92POPC    CE 4766   3.358   4.164   5.311
   92POPC    OG 4767   3.413   4.282   5.249
   92POPC   C2A 4768   3.413   4.282   5.114
   92POPC    OH 4769   3.345   4.199   5.054
   92POPC   C2B 4770   3.476   4.402   5.050
   92POPC   C2C 4771   3.428   4.431   4.907
   92POPC   C2D 4772   3.532   4.513   4.829
   92POPC   C2E 4773   3.495   4.537   4.681
   92POPC   C2F 4774   3.618   4.569   4.595
   92POPC   C2G 4775   3.586   4.574   4.444
   92POPC   C2H 4776   3.710   4.568   4.354
   92POPC   C2I 4777   3.677   4.524   4.211
   92POPC   C2J 4778   3.794   4.540   4.114
   92POPC   C2K 4779   3.770   4.474   3.978
   92POPC   C2L 4780   3.875   4.517   3.875
   92POPC   C2M 4781   3.875   4.427   3.751
   92POPC   C2N 4782   3.961   4.484   3.638
   92POPC   C2O 4783   3.977   4.383   3.524
   92POPC   C2P 4784   4.047   4.445   3.403
   93POPC   CN1 4785   1.369   5.947   5.881
   93POPC   CN2 4786   1.325   6.068   5.684
   93POPC   CN3 4787   1.274   6.165   5.901
   93POPC   NTM 4788   1.275   6.041   5.820
   93POPC    CA 4789   1.138   5.983   5.816
   93POPC    CB 4790   1.019   6.074   5.779
   93POPC    OA 4791   1.051   6.138   5.657
   93POPC     P 4792   0.958   6.256   5.617
   93POPC    OB 4793   0.997   6.340   5.731
   93POPC    OC 4794   0.830   6.187   5.602
   93POPC    OD 4795   1.047   6.278   5.490
   93POPC    CC 4796   1.026   6.178   5.388
   93POPC    CD 4797   1.153   6.105   5.343
   93POPC    OE 4798   1.240   6.188   5.264
   93POPC   C1A 4799   1.367   6.154   5.261
   93POPC    OF 4800   1.421   6.116   5.367
   93POPC   C1B 4801   1.429   6.187   5.131
   93POPC   C1C 4802   1.463   6.063   5.049
   93POPC   C1D 4803   1.447   6.086   4.898
   93POPC   C1E 4804   1.580   6.091   4.822
   93POPC   C1F 4805   1.558   6.099   4.671
   93POPC   C1G 4806   1.689   6.129   4.597
   93POPC   C1H 4807   1.675   6.106   4.447
   93POPC   C1I 4808   1.802   6.151   4.373
   93POPC   C1J 4809   1.797   6.173   4.242
   93POPC   C1K 4810   1.666   6.146   4.166
   93POPC   C1L 4811   1.685   6.121   4.016
   93POPC   C1M 4812   1.779   6.003   3.986
   93POPC   C1N 4813   1.777   5.959   3.840
   93POPC   C1O 4814   1.831   6.064   3.741
   93POPC   C1P 4815   1.848   6.004   3.601
   93POPC   C1Q 4816   1.716   5.957   3.540
   93POPC   C1R 4817   1.739   5.887   3.406
   93POPC    CE 4818   1.122   5.966   5.282
   93POPC    OG 4819   1.014   5.946   5.190
   93POPC   C2A 4820   1.040   5.944   5.058
   93POPC    OH 4821   1.153   5.975   5.019
   93POPC   C2B 4822   0.923   5.911   4.972
   93POPC   C2C 4823   0.955   5.895   4.823
   93POPC   C2D 4824   0.830   5.905   4.735
   93POPC   C2E 4825   0.871   5.899   4.588
   93POPC   C2F 4826   0.758   5.926   4.489
   93POPC   C2G 4827   0.821   5.938   4.350
   93POPC   C2H 4828   0.725   5.991   4.244
   93POPC   C2I 4829   0.808   6.034   4.122
   93POPC   C2J 4830   0.720   6.079   4.006
   93POPC   C2K 4831   0.805   6.127   3.888
   93POPC   C2L 4832   0.718   6.155   3.766
   93POPC   C2M 4833   0.801   6.217   3.653
   93POPC   C2N 4834   0.714   6.240   3.529
   93POPC   C2O 4835   0.793   6.313   3.420
   93POPC   C2P 4836   0.707   6.333   3.295
   94POPC   CN1 4837   3.346   2.243   5.791
   94POPC   CN2 4838   3.301   2.399   5.620
   94POPC   CN3 4839   3.391   2.469   5.831
   94POPC   NTM 4840   3.296   2.379   5.766
   94POPC    CA 4841   3.161   2.397   5.824
   94POPC    CB 4842   3.085   2.533   5.819
   94POPC    OA 4843   3.043   2.575   5.691
   94POPC     P 4844   3.085   2.726   5.667
   94POPC    OB 4845   3.231   2.721   5.676
   94POPC    OC 4846   3.019   2.795   5.780
   94POPC    OD 4847   3.020   2.769   5.531
   94POPC    CC 4848   2.980   2.677   5.427
   94POPC    CD 4849   3.074   2.575   5.362
   94POPC    OE 4850   3.172   2.628   5.270
   94POPC   C1A 4851   3.278   2.552   5.244
   94POPC    OF 4852   3.313   2.470   5.331
   94POPC   C1B 4853   3.356   2.599   5.128
   94POPC   C1C 4854   3.423   2.486   5.050
   94POPC   C1D 4855   3.352   2.449   4.919
   94POPC   C1E 4856   3.449   2.368   4.832
   94POPC   C1F 4857   3.396   2.333   4.693
   94POPC   C1G 4858   3.509   2.278   4.607
   94POPC   C1H 4859   3.464   2.241   4.465
   94POPC   C1I 4860   3.584   2.201   4.379
   94POPC   C1J 4861   3.582   2.221   4.248
   94POPC   C1K 4862   3.458   2.280   4.180
   94POPC   C1L 4863   3.447   2.248   4.030
   94POPC   C1M 4864   3.435   2.098   4.001
   94POPC   C1N 4865   3.407   2.066   3.854
   94POPC   C1O 4866   3.517   2.114   3.759
   94POPC   C1P 4867   3.494   2.066   3.615
   94POPC   C1Q 4868   3.366   2.122   3.553
   94POPC   C1R 4869   3.344   2.065   3.413
   94POPC    CE 4870   2.985   2.464   5.302
   94POPC    OG 4871   2.873   2.502   5.220
   94POPC   C2A 4872   2.876   2.453   5.095
   94POPC    OH 4873   2.965   2.376   5.061
   94POPC   C2B 4874   2.763   2.500   5.011
   94POPC   C2C 4875   2.783   2.462   4.864
   94POPC   C2D 4876   2.701   2.550   4.770
   94POPC   C2E 4877   2.731   2.515   4.624
   94POPC   C2F 4878   2.707   2.634   4.532
   94POPC   C2G 4879   2.732   2.599   4.385
   94POPC   C2H 4880   2.712   2.722   4.296
   94POPC   C2I 4881   2.719   2.683   4.149
   94POPC   C2J 4882   2.683   2.801   4.059
   94POPC   C2K 4883   2.683   2.758   3.912
   94POPC   C2L 4884   2.644   2.873   3.820
   94POPC   C2M 4885   2.657   2.832   3.674
   94POPC   C2N 4886   2.639   2.954   3.583
   94POPC   C2O 4887   2.661   2.919   3.436
   94POPC   C2P 4888   2.644   3.044   3.349
   95POPC   CN1 4889   5.090   0.132   5.657
   95POPC   CN2 4890   4.927   0.273   5.575
   95POPC   CN3 4891   4.978   0.286   5.805
   95POPC   NTM 4892   4.961   0.193   5.693
   95POPC    CA 4893   4.862   0.088   5.727
   95POPC    CB 4894   4.711   0.120   5.742
   95POPC    OA 4895   4.659   0.144   5.614
   95POPC     P 4896   4.546   0.252   5.604
   95POPC    OB 4897   4.623   0.376   5.601
   95POPC    OC 4898   4.468   0.229   5.727
   95POPC    OD 4899   4.477   0.198   5.473
   95POPC    CC 4900   4.550   0.142   5.360
   95POPC    CD 4901   4.681   0.200   5.301
   95POPC    OE 4902   4.691   0.342   5.275
   95POPC   C1A 4903   4.811   0.392   5.244
   95POPC    OF 4904   4.911   0.339   5.296
   95POPC   C1B 4905   4.810   0.528   5.187
   95POPC   C1C 4906   4.933   0.567   5.103
   95POPC   C1D 4907   4.939   0.512   4.959
   95POPC   C1E 4908   5.056   0.577   4.884
   95POPC   C1F 4909   5.063   0.545   4.734
   95POPC   C1G 4910   5.183   0.615   4.668
   95POPC   C1H 4911   5.187   0.605   4.515
   95POPC   C1I 4912   5.318   0.660   4.457
   95POPC   C1J 4913   5.329   0.728   4.343
   95POPC   C1K 4914   5.207   0.764   4.257
   95POPC   C1L 4915   5.233   0.788   4.108
   95POPC   C1M 4916   5.285   0.665   4.034
   95POPC   C1N 4917   5.252   0.659   3.884
   95POPC   C1O 4918   5.317   0.766   3.796
   95POPC   C1P 4919   5.317   0.729   3.647
   95POPC   C1Q 4920   5.177   0.713   3.585
   95POPC   C1R 4921   5.187   0.672   3.438
   95POPC    CE 4922   4.721   0.108   5.184
   95POPC    OG 4923   4.635   0.089   5.070
   95POPC   C2A 4924   4.685   0.127   4.953
   95POPC    OH 4925   4.800   0.171   4.944
   95POPC   C2B 4926   4.600   0.087   4.838
   95POPC   C2C 4927   4.639   0.144   4.700
   95POPC   C2D 4928   4.541   0.095   4.593
   95POPC   C2E 4929   4.565   0.149   4.452
   95POPC   C2F 4930   4.445   0.120   4.361
   95POPC   C2G 4931   4.452   0.184   4.221
   95POPC   C2H 4932   4.319   0.171   4.144
   95POPC   C2I 4933   4.309   0.258   4.018
   95POPC   C2J 4934   4.224   0.383   4.044
   95POPC   C2K 4935   4.214   0.499   3.942
   95POPC   C2L 4936   4.188   0.470   3.794
   95POPC   C2M 4937   4.159   0.599   3.717
   95POPC   C2N 4938   4.138   0.579   3.566
   95POPC   C2O 4939   4.113   0.713   3.498
   95POPC   C2P 4940   4.098   0.699   3.346
   96POPC   CN1 4941   6.118   2.565   5.654
   96POPC   CN2 4942   5.986   2.402   5.549
   96POPC   CN3 4943   5.980   2.419   5.786
   96POPC   NTM 4944   6.067   2.428   5.669
   96POPC    CA 4945   6.184   2.337   5.678
   96POPC    CB 4946   6.166   2.186   5.704
   96POPC    OA 4947   6.083   2.126   5.606
   96POPC     P 4948   6.063   1.971   5.621
   96POPC    OB 4949   5.973   1.967   5.739
   96POPC    OC 4950   6.202   1.927   5.635
   96POPC    OD 4951   5.995   1.940   5.482
   96POPC    CC 4952   6.067   1.976   5.362
   96POPC    CD 4953   6.030   2.113   5.300
   96POPC    OE 4954   5.907   2.113   5.223
   96POPC   C1A 4955   5.841   2.229   5.212
   96POPC    OF 4956   5.871   2.323   5.285
   96POPC   C1B 4957   5.718   2.217   5.130
   96POPC   C1C 4958   5.673   2.345   5.058
   96POPC   C1D 4959   5.749   2.373   4.927
   96POPC   C1E 4960   5.683   2.490   4.853
   96POPC   C1F 4961   5.745   2.515   4.715
   96POPC   C1G 4962   5.672   2.628   4.641
   96POPC   C1H 4963   5.728   2.650   4.500
   96POPC   C1I 4964   5.646   2.756   4.424
   96POPC   C1J 4965   5.642   2.759   4.290
   96POPC   C1K 4966   5.716   2.656   4.204
   96POPC   C1L 4967   5.674   2.657   4.057
   96POPC   C1M 4968   5.741   2.770   3.977
   96POPC   C1N 4969   5.723   2.760   3.825
   96POPC   C1O 4970   5.582   2.795   3.779
   96POPC   C1P 4971   5.571   2.822   3.628
   96POPC   C1Q 4972   5.583   2.697   3.542
   96POPC   C1R 4973   5.560   2.729   3.394
   96POPC    CE 4974   6.154   2.166   5.226
   96POPC    OG 4975   6.185   2.107   5.099
   96POPC   C2A 4976   6.140   2.173   4.992
   96POPC    OH 4977   6.106   2.291   4.998
   96POPC   C2B 4978   6.165   2.096   4.868
   96POPC   C2C 4979   6.060   2.111   4.758
   96POPC   C2D 4980   6.096   2.011   4.649
   96POPC   C2E 4981   6.007   2.023   4.525
   96POPC   C2F 4982   6.046   1.916   4.422
   96POPC   C2G 4983   5.956   1.929   4.300
   96POPC   C2H 4984   5.979   1.817   4.199
   96POPC   C2I 4985   5.878   1.832   4.086
   96POPC   C2J 4986   5.885   1.716   3.987
   96POPC   C2K 4987   5.774   1.730   3.883
   96POPC   C2L 4988   5.774   1.611   3.787
   96POPC   C2M 4989   5.664   1.623   3.682
   96POPC   C2N 4990   5.666   1.502   3.589
   96POPC   C2O 4991   5.560   1.514   3.480
   96POPC   C2P 4992   5.558   1.390   3.390
   97POPC   CN1 4993   2.700   0.106   5.606
   97POPC   CN2 4994   2.840   0.280   5.545
   97POPC   CN3 4995   2.881   0.164   5.748
   97POPC   NTM 4996   2.775   0.218   5.662
   97POPC    CA 4997   2.676   0.301   5.736
   97POPC    CB 4998   2.700   0.451   5.769
   97POPC    OA 4999   2.711   0.526   5.650
   97POPC     P 5000   2.715   0.682   5.665
   97POPC    OB 5001   2.840   0.696   5.743
   97POPC    OC 5002   2.586   0.710   5.728
   97POPC    OD 5003   2.720   0.718   5.512
   97POPC    CC 5004   2.614   0.672   5.427
   97POPC    CD 5005   2.641   0.541   5.349
   97POPC    OE 5006   2.718   0.558   5.228
   97POPC   C1A 5007   2.792   0.455   5.189
   97POPC    OF 5008   2.797   0.354   5.260
   97POPC   C1B 5009   2.865   0.481   5.062
   97POPC   C1C 5010   2.892   0.353   4.983
   97POPC   C1D 5011   2.799   0.330   4.864
   97POPC   C1E 5012   2.859   0.216   4.781
   97POPC   C1F 5013   2.793   0.197   4.644
   97POPC   C1G 5014   2.885   0.112   4.557
   97POPC   C1H 5015   2.826   0.089   4.418
   97POPC   C1I 5016   2.932   0.034   4.322
   97POPC   C1J 5017   2.925   0.068   4.194
   97POPC   C1K 5018   2.808   0.156   4.149
   97POPC   C1L 5019   2.776   0.148   3.999
   97POPC   C1M 5020   2.741   0.006   3.951
   97POPC   C1N 5021   2.700  -0.000   3.804
   97POPC   C1O 5022   2.803   0.065   3.711
   97POPC   C1P 5023   2.782   0.029   3.563
   97POPC   C1Q 5024   2.644   0.064   3.508
   97POPC   C1R 5025   2.637   0.027   3.359
   97POPC    CE 5026   2.506   0.469   5.328
   97POPC    OG 5027   2.424   0.523   5.223
   97POPC   C2A 5028   2.439   0.460   5.106
   97POPC    OH 5029   2.452   0.338   5.104
   97POPC   C2B 5030   2.397   0.544   4.992
   97POPC   C2C 5031   2.453   0.504   4.855
   97POPC   C2D 5032   2.401   0.608   4.756
   97POPC   C2E 5033   2.429   0.588   4.607
   97POPC   C2F 5034   2.358   0.703   4.534
   97POPC   C2G 5035   2.358   0.691   4.382
   97POPC   C2H 5036   2.284   0.808   4.314
   97POPC   C2I 5037   2.253   0.765   4.171
   97POPC   C2J 5038   2.289   0.861   4.058
   97POPC   C2K 5039   2.277   0.777   3.931
   97POPC   C2L 5040   2.266   0.849   3.797
   97POPC   C2M 5041   2.390   0.923   3.748
   97POPC   C2N 5042   2.369   0.947   3.598
   97POPC   C2O 5043   2.460   1.055   3.540
   97POPC   C2P 5044   2.426   1.082   3.393
   98POPC   CN1 5045   1.113   1.344   5.894
   98POPC   CN2 5046   1.056   1.398   5.666
   98POPC   CN3 5047   1.006   1.550   5.843
   98POPC   NTM 5048   1.013   1.407   5.807
   98POPC    CA 5049   0.883   1.339   5.828
   98POPC    CB 5050   0.754   1.409   5.780
   98POPC    OA 5051   0.764   1.438   5.643
   98POPC     P 5052   0.665   1.550   5.596
   98POPC    OB 5053   0.699   1.663   5.686
   98POPC    OC 5054   0.539   1.481   5.620
   98POPC    OD 5055   0.709   1.557   5.447
   98POPC    CC 5056   0.700   1.435   5.372
   98POPC    CD 5057   0.828   1.396   5.296
   98POPC    OE 5058   0.852   1.473   5.176
   98POPC   C1A 5059   0.927   1.582   5.186
   98POPC    OF 5060   0.975   1.613   5.296
   98POPC   C1B 5061   0.944   1.650   5.056
   98POPC   C1C 5062   1.087   1.699   5.030
   98POPC   C1D 5063   1.104   1.720   4.880
   98POPC   C1E 5064   1.244   1.760   4.835
   98POPC   C1F 5065   1.244   1.746   4.683
   98POPC   C1G 5066   1.380   1.763   4.616
   98POPC   C1H 5067   1.372   1.705   4.475
   98POPC   C1I 5068   1.501   1.721   4.394
   98POPC   C1J 5069   1.493   1.704   4.263
   98POPC   C1K 5070   1.357   1.670   4.203
   98POPC   C1L 5071   1.354   1.652   4.051
   98POPC   C1M 5072   1.423   1.524   4.003
   98POPC   C1N 5073   1.407   1.499   3.853
   98POPC   C1O 5074   1.444   1.622   3.769
   98POPC   C1P 5075   1.478   1.590   3.623
   98POPC   C1Q 5076   1.360   1.539   3.540
   98POPC   C1R 5077   1.403   1.519   3.395
   98POPC    CE 5078   0.825   1.243   5.273
   98POPC    OG 5079   0.772   1.188   5.152
   98POPC   C2A 5080   0.859   1.173   5.051
   98POPC    OH 5081   0.979   1.159   5.078
   98POPC   C2B 5082   0.798   1.126   4.925
   98POPC   C2C 5083   0.826   1.212   4.801
   98POPC   C2D 5084   0.785   1.141   4.672
   98POPC   C2E 5085   0.790   1.238   4.553
   98POPC   C2F 5086   0.755   1.178   4.417
   98POPC   C2G 5087   0.737   1.292   4.317
   98POPC   C2H 5088   0.695   1.251   4.176
   98POPC   C2I 5089   0.660   1.377   4.096
   98POPC   C2J 5090   0.611   1.347   3.953
   98POPC   C2K 5091   0.581   1.479   3.881
   98POPC   C2L 5092   0.539   1.456   3.735
   98POPC   C2M 5093   0.521   1.590   3.664
   98POPC   C2N 5094   0.490   1.571   3.516
   98POPC   C2O 5095   0.478   1.707   3.446
   98POPC   C2P 5096   0.445   1.690   3.297
   99POPC   CN1 5097   3.401   1.313   5.671
   99POPC   CN2 5098   3.448   1.152   5.508
   99POPC   CN3 5099   3.361   1.078   5.715
   99POPC   NTM 5100   3.450   1.177   5.653
   99POPC    CA 5101   3.588   1.167   5.707
   99POPC    CB 5102   3.655   1.029   5.726
   99POPC    OA 5103   3.643   0.954   5.607
   99POPC     P 5104   3.700   0.808   5.617
   99POPC    OB 5105   3.579   0.754   5.683
   99POPC    OC 5106   3.826   0.830   5.688
   99POPC    OD 5107   3.716   0.781   5.463
   99POPC    CC 5108   3.790   0.875   5.382
   99POPC    CD 5109   3.698   0.965   5.296
   99POPC    OE 5110   3.632   0.895   5.189
   99POPC   C1A 5111   3.509   0.935   5.159
   99POPC    OF 5112   3.448   1.016   5.230
   99POPC   C1B 5113   3.453   0.857   5.047
   99POPC   C1C 5114   3.356   0.932   4.956
   99POPC   C1D 5115   3.429   1.024   4.858
   99POPC   C1E 5116   3.330   1.063   4.749
   99POPC   C1F 5117   3.405   1.117   4.627
   99POPC   C1G 5118   3.331   1.072   4.501
   99POPC   C1H 5119   3.410   1.111   4.377
   99POPC   C1I 5120   3.341   1.055   4.252
   99POPC   C1J 5121   3.404   1.056   4.135
   99POPC   C1K 5122   3.545   1.113   4.119
   99POPC   C1L 5123   3.575   1.156   3.975
   99POPC   C1M 5124   3.509   1.288   3.936
   99POPC   C1N 5125   3.535   1.330   3.791
   99POPC   C1O 5126   3.470   1.233   3.691
   99POPC   C1P 5127   3.462   1.289   3.548
   99POPC   C1Q 5128   3.597   1.307   3.480
   99POPC   C1R 5129   3.577   1.362   3.338
   99POPC    CE 5130   3.767   1.097   5.253
   99POPC    OG 5131   3.852   1.103   5.138
   99POPC   C2A 5132   3.812   1.184   5.040
   99POPC    OH 5133   3.706   1.246   5.045
   99POPC   C2B 5134   3.913   1.200   4.932
   99POPC   C2C 5135   3.860   1.209   4.789
   99POPC   C2D 5136   3.977   1.235   4.693
   99POPC   C2E 5137   3.942   1.221   4.544
   99POPC   C2F 5138   4.069   1.225   4.458
   99POPC   C2G 5139   4.042   1.190   4.312
   99POPC   C2H 5140   4.169   1.143   4.240
   99POPC   C2I 5141   4.138   1.088   4.100
   99POPC   C2J 5142   4.243   0.987   4.051
   99POPC   C2K 5143   4.224   0.955   3.903
   99POPC   C2L 5144   4.354   0.906   3.838
   99POPC   C2M 5145   4.348   0.929   3.687
   99POPC   C2N 5146   4.475   0.884   3.615
   99POPC   C2O 5147   4.455   0.893   3.463
   99POPC   C2P 5148   4.571   0.827   3.387
  100POPC   CN1 5149   5.703   0.579   5.767
  100POPC   CN2 5150   5.867   0.609   5.599
  100POPC   CN3 5151   5.934   0.543   5.818
  100POPC   NTM 5152   5.839   0.627   5.743
  100POPC    CA 5153   5.847   0.769   5.787
  100POPC    CB 5154   5.979   0.849   5.776
  100POPC    OA 5155   6.020   0.863   5.642
  100POPC     P 5156   6.178   0.860   5.628
  100POPC    OB 5157   6.198   0.725   5.684
  100POPC    OC 5158   6.215   0.978   5.707
  100POPC    OD 5159   6.196   0.867   5.472
  100POPC    CC 5160   6.102   0.937   5.390
  100POPC    CD 5161   5.996   0.843   5.328
  100POPC    OE 5162   6.038   0.776   5.207
  100POPC   C1A 5163   5.996   0.651   5.188
  100POPC    OF 5164   5.925   0.594   5.272
  100POPC   C1B 5165   6.063   0.590   5.070
  100POPC   C1C 5166   5.978   0.490   4.991
  100POPC   C1D 5167   5.887   0.557   4.887
  100POPC   C1E 5168   5.825   0.448   4.799
  100POPC   C1F 5169   5.748   0.504   4.680
  100POPC   C1G 5170   5.699   0.388   4.593
  100POPC   C1H 5171   5.637   0.437   4.462
  100POPC   C1I 5172   5.599   0.317   4.374
  100POPC   C1J 5173   5.624   0.319   4.243
  100POPC   C1K 5174   5.691   0.441   4.179
  100POPC   C1L 5175   5.697   0.434   4.026
  100POPC   C1M 5176   5.558   0.431   3.963
  100POPC   C1N 5177   5.557   0.464   3.814
  100POPC   C1O 5178   5.577   0.345   3.721
  100POPC   C1P 5179   5.529   0.378   3.578
  100POPC   C1Q 5180   5.610   0.491   3.513
  100POPC   C1R 5181   5.552   0.527   3.376
  100POPC    CE 5182   5.863   0.920   5.320
  100POPC    OG 5183   5.856   1.028   5.227
  100POPC   C2A 5184   5.803   0.998   5.109
  100POPC    OH 5185   5.727   0.901   5.096
  100POPC   C2B 5186   5.821   1.107   5.010
  100POPC   C2C 5187   5.847   1.054   4.869
  100POPC   C2D 5188   5.870   1.171   4.774
  100POPC   C2E 5189   5.889   1.122   4.631
  100POPC   C2F 5190   5.901   1.239   4.533
  100POPC   C2G 5191   5.925   1.184   4.393
  100POPC   C2H 5192   5.934   1.293   4.286
  100POPC   C2I 5193   5.973   1.227   4.154
  100POPC   C2J 5194   5.984   1.326   4.038
  100POPC   C2K 5195   6.037   1.251   3.916
  100POPC   C2L 5196   6.043   1.341   3.792
  100POPC   C2M 5197   6.094   1.261   3.673
  100POPC   C2N 5198   6.087   1.343   3.544
  100POPC   C2O 5199   6.144   1.263   3.427
  100POPC   C2P 5200   6.140   1.344   3.297
  101POPC   CN1 5201   5.191   2.051   5.814
  101POPC   CN2 5202   5.057   2.093   5.625
  101POPC   CN3 5203   5.002   2.186   5.839
  101POPC   NTM 5204   5.052   2.066   5.770
  101POPC    CA 5205   4.971   1.946   5.802
  101POPC    CB 5206   4.816   1.951   5.791
  101POPC    OA 5207   4.774   1.989   5.662
  101POPC     P 5208   4.624   2.035   5.653
  101POPC    OB 5209   4.605   2.129   5.766
  101POPC    OC 5210   4.550   1.909   5.656
  101POPC    OD 5211   4.623   2.104   5.511
  101POPC    CC 5212   4.665   2.022   5.400
  101POPC    CD 5213   4.810   2.034   5.347
  101POPC    OE 5214   4.835   2.149   5.262
  101POPC   C1A 5215   4.960   2.183   5.232
  101POPC    OF 5216   5.052   2.148   5.307
  101POPC   C1B 5217   4.964   2.276   5.117
  101POPC   C1C 5218   5.098   2.341   5.079
  101POPC   C1D 5219   5.143   2.282   4.946
  101POPC   C1E 5220   5.226   2.380   4.862
  101POPC   C1F 5221   5.261   2.313   4.730
  101POPC   C1G 5222   5.336   2.405   4.634
  101POPC   C1H 5223   5.368   2.333   4.503
  101POPC   C1I 5224   5.453   2.426   4.416
  101POPC   C1J 5225   5.437   2.440   4.285
  101POPC   C1K 5226   5.334   2.362   4.204
  101POPC   C1L 5227   5.374   2.354   4.056
  101POPC   C1M 5228   5.504   2.274   4.034
  101POPC   C1N 5229   5.538   2.250   3.887
  101POPC   C1O 5230   5.560   2.379   3.808
  101POPC   C1P 5231   5.625   2.353   3.672
  101POPC   C1Q 5232   5.532   2.281   3.574
  101POPC   C1R 5233   5.600   2.265   3.438
  101POPC    CE 5234   4.839   1.900   5.276
  101POPC    OG 5235   4.756   1.868   5.162
  101POPC   C2A 5236   4.799   1.911   5.043
  101POPC    OH 5237   4.912   1.959   5.030
  101POPC   C2B 5238   4.704   1.885   4.933
  101POPC   C2C 5239   4.766   1.918   4.797
  101POPC   C2D 5240   4.662   1.916   4.685
  101POPC   C2E 5241   4.724   1.969   4.556
  101POPC   C2F 5242   4.616   1.983   4.449
  101POPC   C2G 5243   4.673   2.032   4.316
  101POPC   C2H 5244   4.565   2.028   4.209
  101POPC   C2I 5245   4.617   2.078   4.074
  101POPC   C2J 5246   4.509   2.062   3.967
  101POPC   C2K 5247   4.547   2.144   3.844
  101POPC   C2L 5248   4.441   2.135   3.735
  101POPC   C2M 5249   4.476   2.235   3.625
  101POPC   C2N 5250   4.381   2.224   3.505
  101POPC   C2O 5251   4.417   2.331   3.401
  101POPC   C2P 5252   4.328   2.319   3.277
  102POPC   CN1 5253   5.154   5.942   5.699
  102POPC   CN2 5254   5.016   6.092   5.581
  102POPC   CN3 5255   5.045   6.119   5.819
  102POPC   NTM 5256   5.032   6.022   5.710
  102POPC    CA 5257   4.920   5.927   5.732
  102POPC    CB 5258   4.777   5.974   5.767
  102POPC    OA 5259   4.727   6.072   5.678
  102POPC     P 5260   4.569   6.068   5.662
  102POPC    OB 5261   4.522   6.176   5.749
  102POPC    OC 5262   4.526   5.932   5.697
  102POPC    OD 5263   4.547   6.088   5.508
  102POPC    CC 5264   4.588   5.984   5.418
  102POPC    CD 5265   4.730   5.997   5.360
  102POPC    OE 5266   4.740   6.080   5.242
  102POPC   C1A 5267   4.860   6.122   5.205
  102POPC    OF 5268   4.944   6.147   5.292
  102POPC   C1B 5269   4.863   6.153   5.060
  102POPC   C1C 5270   4.999   6.195   5.003
  102POPC   C1D 5271   4.992   6.179   4.851
  102POPC   C1E 5272   5.118   6.229   4.781
  102POPC   C1F 5273   5.122   6.174   4.639
  102POPC   C1G 5274   5.236   6.235   4.557
  102POPC   C1H 5275   5.247   6.164   4.423
  102POPC   C1I 5276   5.337   6.241   4.325
  102POPC   C1J 5277   5.313   6.231   4.195
  102POPC   C1K 5278   5.201   6.138   4.147
  102POPC   C1L 5279   5.216   6.094   4.001
  102POPC   C1M 5280   5.343   6.012   3.975
  102POPC   C1N 5281   5.354   5.961   3.831
  102POPC   C1O 5282   5.360   6.074   3.727
  102POPC   C1P 5283   5.390   6.022   3.586
  102POPC   C1Q 5284   5.280   5.929   3.532
  102POPC   C1R 5285   5.318   5.876   3.394
  102POPC    CE 5286   4.782   5.853   5.337
  102POPC    OG 5287   4.721   5.778   5.232
  102POPC   C2A 5288   4.785   5.781   5.115
  102POPC    OH 5289   4.895   5.835   5.102
  102POPC   C2B 5290   4.712   5.707   5.009
  102POPC   C2C 5291   4.735   5.765   4.870
  102POPC   C2D 5292   4.643   5.694   4.772
  102POPC   C2E 5293   4.660   5.741   4.628
  102POPC   C2F 5294   4.558   5.668   4.542
  102POPC   C2G 5295   4.565   5.710   4.395
  102POPC   C2H 5296   4.456   5.636   4.318
  102POPC   C2I 5297   4.450   5.681   4.173
  102POPC   C2J 5298   4.340   5.606   4.098
  102POPC   C2K 5299   4.332   5.658   3.955
  102POPC   C2L 5300   4.225   5.588   3.871
  102POPC   C2M 5301   4.219   5.657   3.735
  102POPC   C2N 5302   4.124   5.588   3.638
  102POPC   C2O 5303   4.122   5.666   3.506
  102POPC   C2P 5304   4.038   5.595   3.400
  103POPC   CN1 5305   4.176   0.090   5.756
  103POPC   CN2 5306   4.082   0.254   5.620
  103POPC   CN3 5307   4.106   0.294   5.856
  103POPC   NTM 5308   4.074   0.194   5.754
  103POPC    CA 5309   3.942   0.136   5.784
  103POPC    CB 5310   3.809   0.215   5.784
  103POPC    OA 5311   3.768   0.258   5.656
  103POPC     P 5312   3.735   0.413   5.642
  103POPC    OB 5313   3.759   0.466   5.777
  103POPC    OC 5314   3.600   0.412   5.586
  103POPC    OD 5315   3.843   0.420   5.529
  103POPC    CC 5316   3.789   0.374   5.406
  103POPC    CD 5317   3.890   0.361   5.293
  103POPC    OE 5318   3.879   0.473   5.202
  103POPC   C1A 5319   3.982   0.500   5.124
  103POPC    OF 5320   4.073   0.419   5.118
  103POPC   C1B 5321   3.977   0.631   5.054
  103POPC   C1C 5322   4.095   0.647   4.957
  103POPC   C1D 5323   4.085   0.556   4.834
  103POPC   C1E 5324   4.220   0.552   4.764
  103POPC   C1F 5325   4.209   0.495   4.622
  103POPC   C1G 5326   4.350   0.487   4.564
  103POPC   C1H 5327   4.353   0.492   4.411
  103POPC   C1I 5328   4.499   0.499   4.368
  103POPC   C1J 5329   4.549   0.556   4.259
  103POPC   C1K 5330   4.471   0.629   4.149
  103POPC   C1L 5331   4.538   0.621   4.010
  103POPC   C1M 5332   4.581   0.479   3.969
  103POPC   C1N 5333   4.570   0.432   3.823
  103POPC   C1O 5334   4.545   0.540   3.718
  103POPC   C1P 5335   4.548   0.487   3.574
  103POPC   C1Q 5336   4.453   0.369   3.546
  103POPC   C1R 5337   4.454   0.334   3.397
  103POPC    CE 5338   3.881   0.216   5.242
  103POPC    OG 5339   3.768   0.179   5.162
  103POPC   C2A 5340   3.792   0.175   5.031
  103POPC    OH 5341   3.906   0.162   4.989
  103POPC   C2B 5342   3.670   0.160   4.948
  103POPC   C2C 5343   3.702   0.169   4.798
  103POPC   C2D 5344   3.576   0.156   4.713
  103POPC   C2E 5345   3.610   0.173   4.565
  103POPC   C2F 5346   3.487   0.179   4.475
  103POPC   C2G 5347   3.530   0.233   4.339
  103POPC   C2H 5348   3.418   0.250   4.237
  103POPC   C2I 5349   3.475   0.323   4.115
  103POPC   C2J 5350   3.379   0.326   3.996
  103POPC   C2K 5351   3.444   0.396   3.877
  103POPC   C2L 5352   3.353   0.383   3.754
  103POPC   C2M 5353   3.417   0.442   3.629
  103POPC   C2N 5354   3.318   0.440   3.512
  103POPC   C2O 5355   3.377   0.509   3.389
  103POPC   C2P 5356   3.269   0.534   3.284
  104POPC   CN1 5357   1.393   2.011   5.837
  104POPC   CN2 5358   1.349   2.110   5.622
  104POPC   CN3 5359   1.303   2.225   5.826
  104POPC   NTM 5360   1.300   2.095   5.761
  104POPC    CA 5361   1.164   2.034   5.758
  104POPC    CB 5362   1.040   2.123   5.731
  104POPC    OA 5363   1.058   2.206   5.618
  104POPC     P 5364   1.009   2.357   5.621
  104POPC    OB 5365   1.133   2.433   5.648
  104POPC    OC 5366   0.918   2.348   5.736
  104POPC    OD 5367   0.946   2.379   5.478
  104POPC    CC 5368   0.937   2.279   5.373
  104POPC    CD 5369   1.062   2.210   5.314
  104POPC    OE 5370   1.148   2.292   5.232
  104POPC   C1A 5371   1.277   2.259   5.232
  104POPC    OF 5372   1.323   2.196   5.328
  104POPC   C1B 5373   1.355   2.327   5.126
  104POPC   C1C 5374   1.466   2.237   5.071
  104POPC   C1D 5375   1.432   2.168   4.939
  104POPC   C1E 5376   1.561   2.110   4.880
  104POPC   C1F 5377   1.547   2.070   4.733
  104POPC   C1G 5378   1.684   2.042   4.670
  104POPC   C1H 5379   1.674   2.013   4.520
  104POPC   C1I 5380   1.764   2.106   4.438
  104POPC   C1J 5381   1.765   2.107   4.305
  104POPC   C1K 5382   1.679   2.013   4.221
  104POPC   C1L 5383   1.730   2.002   4.077
  104POPC   C1M 5384   1.637   1.918   3.989
  104POPC   C1N 5385   1.688   1.890   3.847
  104POPC   C1O 5386   1.705   2.013   3.758
  104POPC   C1P 5387   1.741   1.976   3.613
  104POPC   C1Q 5388   1.625   1.917   3.533
  104POPC   C1R 5389   1.668   1.890   3.388
  104POPC    CE 5390   1.021   2.073   5.256
  104POPC    OG 5391   0.912   2.062   5.163
  104POPC   C2A 5392   0.945   2.037   5.036
  104POPC    OH 5393   1.064   2.033   5.003
  104POPC   C2B 5394   0.830   2.011   4.946
  104POPC   C2C 5395   0.872   1.993   4.799
  104POPC   C2D 5396   0.757   2.002   4.698
  104POPC   C2E 5397   0.813   2.017   4.556
  104POPC   C2F 5398   0.705   2.056   4.454
  104POPC   C2G 5399   0.770   2.099   4.322
  104POPC   C2H 5400   0.669   2.135   4.213
  104POPC   C2I 5401   0.740   2.206   4.097
  104POPC   C2J 5402   0.652   2.234   3.975
  104POPC   C2K 5403   0.714   2.347   3.894
  104POPC   C2L 5404   0.655   2.372   3.755
  104POPC   C2M 5405   0.713   2.503   3.699
  104POPC   C2N 5406   0.674   2.528   3.553
  104POPC   C2O 5407   0.743   2.654   3.501
  104POPC   C2P 5408   0.729   2.666   3.349
  105POPC   CN1 5409   0.633   2.061   5.559
  105POPC   CN2 5410   0.619   2.293   5.537
  105POPC   CN3 5411   0.632   2.207   5.754
  105POPC   NTM 5412   0.575   2.181   5.622
  105POPC    CA 5413   0.428   2.171   5.632
  105POPC    CB 5414   0.342   2.289   5.682
  105POPC    OA 5415   0.348   2.387   5.582
  105POPC     P 5416   0.264   2.517   5.603
  105POPC    OB 5417   0.316   2.564   5.731
  105POPC    OC 5418   0.131   2.455   5.596
  105POPC    OD 5419   0.306   2.587   5.468
  105POPC    CC 5420   0.272   2.526   5.343
  105POPC    CD 5421   0.375   2.426   5.284
  105POPC    OE 5422   0.464   2.479   5.184
  105POPC   C1A 5423   0.580   2.416   5.166
  105POPC    OF 5424   0.623   2.337   5.252
  105POPC   C1B 5425   0.649   2.459   5.043
  105POPC   C1C 5426   0.783   2.389   5.020
  105POPC   C1D 5427   0.802   2.375   4.870
  105POPC   C1E 5428   0.948   2.355   4.828
  105POPC   C1F 5429   0.949   2.347   4.675
  105POPC   C1G 5430   1.078   2.400   4.614
  105POPC   C1H 5431   1.057   2.437   4.467
  105POPC   C1I 5432   1.076   2.318   4.373
  105POPC   C1J 5433   1.064   2.333   4.241
  105POPC   C1K 5434   1.020   2.465   4.177
  105POPC   C1L 5435   1.065   2.490   4.032
  105POPC   C1M 5436   1.071   2.362   3.946
  105POPC   C1N 5437   1.062   2.374   3.793
  105POPC   C1O 5438   1.114   2.502   3.727
  105POPC   C1P 5439   1.138   2.485   3.576
  105POPC   C1Q 5440   1.029   2.407   3.502
  105POPC   C1R 5441   1.057   2.397   3.352
  105POPC    CE 5442   0.298   2.300   5.242
  105POPC    OG 5443   0.219   2.308   5.122
  105POPC   C2A 5444   0.284   2.282   5.008
  105POPC    OH 5445   0.389   2.217   5.008
  105POPC   C2B 5446   0.204   2.313   4.888
  105POPC   C2C 5447   0.283   2.394   4.785
  105POPC   C2D 5448   0.193   2.419   4.664
  105POPC   C2E 5449   0.256   2.513   4.562
  105POPC   C2F 5450   0.162   2.529   4.442
  105POPC   C2G 5451   0.203   2.645   4.353
  105POPC   C2H 5452   0.113   2.656   4.230
  105POPC   C2I 5453   0.144   2.786   4.155
  105POPC   C2J 5454   0.071   2.795   4.022
  105POPC   C2K 5455   0.106   2.927   3.954
  105POPC   C2L 5456   0.055   2.934   3.810
  105POPC   C2M 5457   0.091   3.070   3.749
  105POPC   C2N 5458   0.072   3.071   3.598
  105POPC   C2O 5459   0.120   3.205   3.541
  105POPC   C2P 5460   0.121   3.203   3.388
  106POPC   CN1 5461   1.799   3.681   5.799
  106POPC   CN2 5462   1.749   3.572   5.593
  106POPC   CN3 5463   1.578   3.612   5.749
  106POPC   NTM 5464   1.719   3.577   5.737
  106POPC    CA 5465   1.750   3.449   5.806
  106POPC    CB 5466   1.667   3.323   5.778
  106POPC    OA 5467   1.681   3.278   5.645
  106POPC     P 5468   1.542   3.231   5.585
  106POPC    OB 5469   1.481   3.364   5.577
  106POPC    OC 5470   1.495   3.142   5.694
  106POPC    OD 5471   1.587   3.165   5.448
  106POPC    CC 5472   1.711   3.199   5.382
  106POPC    CD 5473   1.729   3.333   5.307
  106POPC    OE 5474   1.636   3.355   5.199
  106POPC   C1A 5475   1.592   3.479   5.181
  106POPC    OF 5476   1.636   3.572   5.250
  106POPC   C1B 5477   1.490   3.487   5.073
  106POPC   C1C 5478   1.515   3.597   4.969
  106POPC   C1D 5479   1.642   3.572   4.886
  106POPC   C1E 5480   1.655   3.670   4.770
  106POPC   C1F 5481   1.782   3.643   4.688
  106POPC   C1G 5482   1.795   3.744   4.575
  106POPC   C1H 5483   1.917   3.720   4.486
  106POPC   C1I 5484   1.945   3.848   4.407
  106POPC   C1J 5485   1.995   3.852   4.285
  106POPC   C1K 5486   2.030   3.725   4.207
  106POPC   C1L 5487   2.031   3.746   4.055
  106POPC   C1M 5488   2.137   3.845   4.006
  106POPC   C1N 5489   2.163   3.840   3.855
  106POPC   C1O 5490   2.040   3.867   3.769
  106POPC   C1P 5491   2.074   3.898   3.623
  106POPC   C1Q 5492   2.160   3.793   3.554
  106POPC   C1R 5493   2.190   3.832   3.409
  106POPC    CE 5494   1.878   3.355   5.268
  106POPC    OG 5495   1.954   3.258   5.193
  106POPC   C2A 5496   2.031   3.304   5.094
  106POPC    OH 5497   2.054   3.424   5.082
  106POPC   C2B 5498   2.101   3.197   5.018
  106POPC   C2C 5499   2.122   3.228   4.869
  106POPC   C2D 5500   2.125   3.098   4.787
  106POPC   C2E 5501   2.114   3.119   4.636
  106POPC   C2F 5502   2.057   2.994   4.566
  106POPC   C2G 5503   2.041   3.014   4.415
  106POPC   C2H 5504   1.984   2.891   4.344
  106POPC   C2I 5505   1.971   2.919   4.193
  106POPC   C2J 5506   1.929   2.796   4.112
  106POPC   C2K 5507   1.913   2.833   3.964
  106POPC   C2L 5508   1.881   2.712   3.877
  106POPC   C2M 5509   1.852   2.755   3.733
  106POPC   C2N 5510   1.821   2.635   3.642
  106POPC   C2O 5511   1.781   2.682   3.502
  106POPC   C2P 5512   1.754   2.563   3.410
  107POPC   CN1 5513   3.239   0.690   5.671
  107POPC   CN2 5514   3.171   0.493   5.564
  107POPC   CN3 5515   3.127   0.517   5.797
  107POPC   NTM 5516   3.224   0.545   5.691
  107POPC    CA 5517   3.358   0.489   5.720
  107POPC    CB 5518   3.376   0.343   5.768
  107POPC    OA 5519   3.289   0.251   5.704
  107POPC     P 5520   3.352   0.111   5.664
  107POPC    OB 5521   3.247   0.026   5.722
  107POPC    OC 5522   3.488   0.105   5.719
  107POPC    OD 5523   3.343   0.127   5.507
  107POPC    CC 5524   3.440   0.206   5.437
  107POPC    CD 5525   3.376   0.289   5.322
  107POPC    OE 5526   3.365   0.216   5.198
  107POPC   C1A 5527   3.274   0.258   5.112
  107POPC    OF 5528   3.180   0.328   5.150
  107POPC   C1B 5529   3.291   0.191   4.981
  107POPC   C1C 5530   3.222   0.257   4.861
  107POPC   C1D 5531   3.268   0.398   4.824
  107POPC   C1E 5532   3.178   0.444   4.710
  107POPC   C1F 5533   3.206   0.584   4.656
  107POPC   C1G 5534   3.097   0.610   4.553
  107POPC   C1H 5535   3.121   0.732   4.465
  107POPC   C1I 5536   3.013   0.735   4.357
  107POPC   C1J 5537   3.034   0.689   4.235
  107POPC   C1K 5538   3.173   0.639   4.193
  107POPC   C1L 5539   3.203   0.659   4.044
  107POPC   C1M 5540   3.185   0.805   3.998
  107POPC   C1N 5541   3.263   0.840   3.871
  107POPC   C1O 5542   3.228   0.750   3.752
  107POPC   C1P 5543   3.271   0.810   3.619
  107POPC   C1Q 5544   3.418   0.853   3.611
  107POPC   C1R 5545   3.448   0.910   3.473
  107POPC    CE 5546   3.448   0.425   5.309
  107POPC    OG 5547   3.552   0.440   5.210
  107POPC   C2A 5548   3.523   0.509   5.101
  107POPC    OH 5549   3.409   0.552   5.081
  107POPC   C2B 5550   3.637   0.524   5.007
  107POPC   C2C 5551   3.604   0.552   4.860
  107POPC   C2D 5552   3.730   0.539   4.773
  107POPC   C2E 5553   3.704   0.556   4.624
  107POPC   C2F 5554   3.818   0.498   4.540
  107POPC   C2G 5555   3.781   0.503   4.391
  107POPC   C2H 5556   3.869   0.414   4.303
  107POPC   C2I 5557   3.819   0.416   4.158
  107POPC   C2J 5558   3.894   0.316   4.072
  107POPC   C2K 5559   3.868   0.318   3.921
  107POPC   C2L 5560   3.957   0.213   3.854
  107POPC   C2M 5561   3.955   0.217   3.701
  107POPC   C2N 5562   4.064   0.127   3.642
  107POPC   C2O 5563   4.065   0.139   3.490
  107POPC   C2P 5564   4.181   0.062   3.428
  108POPC   CN1 5565   2.218   3.160   5.802
  108POPC   CN2 5566   2.098   3.066   5.618
  108POPC   CN3 5567   1.991   3.100   5.827
  108POPC   NTM 5568   2.117   3.060   5.764
  108POPC    CA 5569   2.162   2.929   5.817
  108POPC    CB 5570   2.102   2.794   5.771
  108POPC    OA 5571   2.135   2.760   5.638
  108POPC     P 5572   2.115   2.604   5.614
  108POPC    OB 5573   2.034   2.550   5.726
  108POPC    OC 5574   2.259   2.574   5.608
  108POPC    OD 5575   2.045   2.605   5.475
  108POPC    CC 5576   2.123   2.645   5.362
  108POPC    CD 5577   2.090   2.787   5.313
  108POPC    OE 5578   2.020   2.795   5.187
  108POPC   C1A 5579   1.924   2.888   5.178
  108POPC    OF 5580   1.910   2.968   5.271
  108POPC   C1B 5581   1.859   2.891   5.045
  108POPC   C1C 5582   1.775   3.017   5.021
  108POPC   C1D 5583   1.767   3.051   4.873
  108POPC   C1E 5584   1.715   3.194   4.857
  108POPC   C1F 5585   1.782   3.267   4.740
  108POPC   C1G 5586   1.718   3.246   4.603
  108POPC   C1H 5587   1.799   3.318   4.496
  108POPC   C1I 5588   1.711   3.360   4.378
  108POPC   C1J 5589   1.760   3.364   4.254
  108POPC   C1K 5590   1.904   3.323   4.224
  108POPC   C1L 5591   1.927   3.283   4.077
  108POPC   C1M 5592   1.898   3.401   3.984
  108POPC   C1N 5593   2.007   3.426   3.881
  108POPC   C1O 5594   1.974   3.369   3.743
  108POPC   C1P 5595   2.061   3.438   3.638
  108POPC   C1Q 5596   2.022   3.394   3.497
  108POPC   C1R 5597   2.109   3.459   3.390
  108POPC    CE 5598   2.222   2.866   5.315
  108POPC    OG 5599   2.327   2.812   5.233
  108POPC   C2A 5600   2.340   2.874   5.115
  108POPC    OH 5601   2.331   2.996   5.112
  108POPC   C2B 5602   2.397   2.787   5.009
  108POPC   C2C 5603   2.377   2.846   4.869
  108POPC   C2D 5604   2.376   2.738   4.761
  108POPC   C2E 5605   2.368   2.799   4.621
  108POPC   C2F 5606   2.340   2.690   4.517
  108POPC   C2G 5607   2.337   2.745   4.375
  108POPC   C2H 5608   2.317   2.631   4.275
  108POPC   C2I 5609   2.313   2.682   4.131
  108POPC   C2J 5610   2.303   2.567   4.032
  108POPC   C2K 5611   2.296   2.621   3.889
  108POPC   C2L 5612   2.291   2.507   3.787
  108POPC   C2M 5613   2.288   2.564   3.645
  108POPC   C2N 5614   2.298   2.452   3.542
  108POPC   C2O 5615   2.309   2.506   3.399
  108POPC   C2P 5616   2.341   2.394   3.301
  109POPC   CN1 5617   5.094   0.943   5.687
  109POPC   CN2 5618   4.964   1.111   5.583
  109POPC   CN3 5619   5.015   1.130   5.816
  109POPC   NTM 5620   4.982   1.035   5.708
  109POPC    CA 5621   4.864   0.962   5.755
  109POPC    CB 5622   4.727   1.033   5.750
  109POPC    OA 5623   4.667   1.011   5.624
  109POPC     P 5624   4.568   1.130   5.592
  109POPC    OB 5625   4.656   1.247   5.601
  109POPC    OC 5626   4.472   1.112   5.701
  109POPC    OD 5627   4.512   1.088   5.452
  109POPC    CC 5628   4.595   1.030   5.350
  109POPC    CD 5629   4.713   1.109   5.291
  109POPC    OE 5630   4.673   1.225   5.215
  109POPC   C1A 5631   4.764   1.319   5.191
  109POPC    OF 5632   4.870   1.318   5.254
  109POPC   C1B 5633   4.711   1.426   5.103
  109POPC   C1C 5634   4.815   1.497   5.016
  109POPC   C1D 5635   4.872   1.412   4.902
  109POPC   C1E 5636   4.966   1.498   4.818
  109POPC   C1F 5637   5.018   1.430   4.691
  109POPC   C1G 5638   5.112   1.529   4.623
  109POPC   C1H 5639   5.150   1.490   4.481
  109POPC   C1I 5640   5.243   1.596   4.422
  109POPC   C1J 5641   5.227   1.627   4.294
  109POPC   C1K 5642   5.120   1.551   4.216
  109POPC   C1L 5643   5.130   1.567   4.064
  109POPC   C1M 5644   5.265   1.522   4.007
  109POPC   C1N 5645   5.263   1.512   3.855
  109POPC   C1O 5646   5.241   1.647   3.787
  109POPC   C1P 5647   5.242   1.634   3.635
  109POPC   C1Q 5648   5.117   1.569   3.577
  109POPC   C1R 5649   5.124   1.572   3.424
  109POPC    CE 5650   4.801   1.008   5.213
  109POPC    OG 5651   4.756   0.968   5.083
  109POPC   C2A 5652   4.814   1.029   4.980
  109POPC    OH 5653   4.930   1.069   4.991
  109POPC   C2B 5654   4.745   1.001   4.852
  109POPC   C2C 5655   4.730   1.118   4.756
  109POPC   C2D 5656   4.654   1.072   4.631
  109POPC   C2E 5657   4.646   1.176   4.519
  109POPC   C2F 5658   4.601   1.106   4.391
  109POPC   C2G 5659   4.601   1.198   4.268
  109POPC   C2H 5660   4.602   1.111   4.142
  109POPC   C2I 5661   4.597   1.189   4.009
  109POPC   C2J 5662   4.459   1.251   3.984
  109POPC   C2K 5663   4.434   1.280   3.835
  109POPC   C2L 5664   4.290   1.324   3.806
  109POPC   C2M 5665   4.278   1.364   3.659
  109POPC   C2N 5666   4.135   1.398   3.617
  109POPC   C2O 5667   4.136   1.451   3.473
  109POPC   C2P 5668   3.994   1.473   3.420
  110POPC   CN1 5669   2.926   2.205   5.581
  110POPC   CN2 5670   2.836   1.992   5.576
  110POPC   CN3 5671   2.801   2.123   5.768
  110POPC   NTM 5672   2.901   2.088   5.666
  110POPC    CA 5673   3.028   2.045   5.731
  110POPC    CB 5674   3.081   1.900   5.743
  110POPC    OA 5675   3.126   1.848   5.620
  110POPC     P 5676   3.089   1.695   5.602
  110POPC    OB 5677   2.945   1.704   5.628
  110POPC    OC 5678   3.166   1.624   5.705
  110POPC    OD 5679   3.110   1.655   5.452
  110POPC    CC 5680   3.177   1.741   5.359
  110POPC    CD 5681   3.106   1.872   5.316
  110POPC    OE 5682   2.984   1.857   5.240
  110POPC   C1A 5683   2.910   1.966   5.216
  110POPC    OF 5684   2.910   2.056   5.302
  110POPC   C1B 5685   2.810   1.943   5.110
  110POPC   C1C 5686   2.768   2.069   5.033
  110POPC   C1D 5687   2.789   2.050   4.883
  110POPC   C1E 5688   2.674   2.111   4.802
  110POPC   C1F 5689   2.702   2.102   4.651
  110POPC   C1G 5690   2.589   2.167   4.570
  110POPC   C1H 5691   2.631   2.185   4.424
  110POPC   C1I 5692   2.527   2.263   4.344
  110POPC   C1J 5693   2.521   2.246   4.212
  110POPC   C1K 5694   2.621   2.150   4.146
  110POPC   C1L 5695   2.628   2.160   3.993
  110POPC   C1M 5696   2.682   2.294   3.943
  110POPC   C1N 5697   2.721   2.291   3.795
  110POPC   C1O 5698   2.603   2.269   3.700
  110POPC   C1P 5699   2.640   2.302   3.555
  110POPC   C1Q 5700   2.741   2.204   3.493
  110POPC   C1R 5701   2.763   2.238   3.345
  110POPC    CE 5702   3.216   1.961   5.254
  110POPC    OG 5703   3.285   1.909   5.141
  110POPC   C2A 5704   3.243   1.950   5.022
  110POPC    OH 5705   3.153   2.034   5.012
  110POPC   C2B 5706   3.324   1.895   4.911
  110POPC   C2C 5707   3.246   1.891   4.779
  110POPC   C2D 5708   3.337   1.841   4.667
  110POPC   C2E 5709   3.261   1.849   4.534
  110POPC   C2F 5710   3.344   1.794   4.418
  110POPC   C2G 5711   3.259   1.801   4.292
  110POPC   C2H 5712   3.323   1.731   4.173
  110POPC   C2I 5713   3.222   1.732   4.058
  110POPC   C2J 5714   3.270   1.650   3.938
  110POPC   C2K 5715   3.162   1.651   3.830
  110POPC   C2L 5716   3.205   1.563   3.712
  110POPC   C2M 5717   3.103   1.570   3.598
  110POPC   C2N 5718   3.150   1.479   3.484
  110POPC   C2O 5719   3.063   1.493   3.359
  110POPC   C2P 5720   3.106   1.392   3.252
  111POPC   CN1 5721   1.661   0.659   5.509
  111POPC   CN2 5722   1.627   0.880   5.504
  111POPC   CN3 5723   1.649   0.788   5.718
  111POPC   NTM 5724   1.592   0.764   5.585
  111POPC    CA 5725   1.446   0.733   5.589
  111POPC    CB 5726   1.346   0.826   5.663
  111POPC    OA 5727   1.372   0.962   5.631
  111POPC     P 5728   1.257   1.066   5.655
  111POPC    OB 5729   1.333   1.151   5.748
  111POPC    OC 5730   1.136   1.002   5.707
  111POPC    OD 5731   1.240   1.142   5.517
  111POPC    CC 5732   1.226   1.070   5.392
  111POPC    CD 5733   1.361   1.031   5.326
  111POPC    OE 5734   1.427   1.132   5.248
  111POPC   C1A 5735   1.560   1.143   5.251
  111POPC    OF 5736   1.616   1.136   5.361
  111POPC   C1B 5737   1.612   1.210   5.129
  111POPC   C1C 5738   1.762   1.225   5.109
  111POPC   C1D 5739   1.779   1.266   4.963
  111POPC   C1E 5740   1.920   1.248   4.906
  111POPC   C1F 5741   1.908   1.228   4.755
  111POPC   C1G 5742   2.041   1.200   4.685
  111POPC   C1H 5743   2.019   1.161   4.538
  111POPC   C1I 5744   2.151   1.160   4.462
  111POPC   C1J 5745   2.154   1.156   4.329
  111POPC   C1K 5746   2.025   1.147   4.248
  111POPC   C1L 5747   2.042   1.205   4.108
  111POPC   C1M 5748   2.021   1.098   4.001
  111POPC   C1N 5749   2.015   1.154   3.859
  111POPC   C1O 5750   2.145   1.214   3.805
  111POPC   C1P 5751   2.129   1.270   3.663
  111POPC   C1Q 5752   2.072   1.169   3.564
  111POPC   C1R 5753   2.069   1.224   3.422
  111POPC    CE 5754   1.341   0.894   5.258
  111POPC    OG 5755   1.249   0.882   5.150
  111POPC   C2A 5756   1.305   0.880   5.028
  111POPC    OH 5757   1.427   0.879   5.016
  111POPC   C2B 5758   1.206   0.859   4.920
  111POPC   C2C 5759   1.259   0.914   4.787
  111POPC   C2D 5760   1.161   0.886   4.674
  111POPC   C2E 5761   1.217   0.949   4.547
  111POPC   C2F 5762   1.119   0.941   4.430
  111POPC   C2G 5763   1.176   1.024   4.315
  111POPC   C2H 5764   1.079   1.035   4.199
  111POPC   C2I 5765   1.136   1.133   4.096
  111POPC   C2J 5766   1.036   1.157   3.983
  111POPC   C2K 5767   1.089   1.263   3.887
  111POPC   C2L 5768   0.984   1.294   3.780
  111POPC   C2M 5769   1.035   1.403   3.686
  111POPC   C2N 5770   0.930   1.436   3.579
  111POPC   C2O 5771   0.982   1.543   3.484
  111POPC   C2P 5772   0.878   1.578   3.378
  112POPC   CN1 5773   2.340   1.384   5.736
  112POPC   CN2 5774   2.354   1.554   5.575
  112POPC   CN3 5775   2.386   1.610   5.805
  112POPC   NTM 5776   2.309   1.525   5.713
  112POPC    CA 5777   2.164   1.552   5.733
  112POPC    CB 5778   2.110   1.697   5.735
  112POPC    OA 5779   2.148   1.761   5.616
  112POPC     P 5780   2.166   1.918   5.633
  112POPC    OB 5781   2.274   1.909   5.733
  112POPC    OC 5782   2.028   1.948   5.671
  112POPC    OD 5783   2.220   1.950   5.490
  112POPC    CC 5784   2.151   1.906   5.372
  112POPC    CD 5785   2.216   1.780   5.313
  112POPC    OE 5786   2.301   1.802   5.199
  112POPC   C1A 5787   2.414   1.733   5.187
  112POPC    OF 5788   2.454   1.665   5.283
  112POPC   C1B 5789   2.482   1.773   5.062
  112POPC   C1C 5790   2.571   1.674   4.986
  112POPC   C1D 5791   2.595   1.737   4.848
  112POPC   C1E 5792   2.708   1.678   4.763
  112POPC   C1F 5793   2.672   1.538   4.712
  112POPC   C1G 5794   2.748   1.498   4.587
  112POPC   C1H 5795   2.691   1.366   4.534
  112POPC   C1I 5796   2.781   1.294   4.435
  112POPC   C1J 5797   2.769   1.305   4.303
  112POPC   C1K 5798   2.667   1.395   4.233
  112POPC   C1L 5799   2.685   1.401   4.081
  112POPC   C1M 5800   2.668   1.264   4.016
  112POPC   C1N 5801   2.626   1.267   3.869
  112POPC   C1O 5802   2.714   1.352   3.776
  112POPC   C1P 5803   2.692   1.300   3.634
  112POPC   C1Q 5804   2.742   1.393   3.524
  112POPC   C1R 5805   2.725   1.325   3.388
  112POPC    CE 5806   2.102   1.678   5.294
  112POPC    OG 5807   2.035   1.677   5.168
  112POPC   C2A 5808   2.090   1.597   5.076
  112POPC    OH 5809   2.141   1.492   5.115
  112POPC   C2B 5810   2.042   1.623   4.939
  112POPC   C2C 5811   2.113   1.739   4.867
  112POPC   C2D 5812   2.043   1.762   4.733
  112POPC   C2E 5813   2.116   1.857   4.638
  112POPC   C2F 5814   2.046   1.856   4.502
  112POPC   C2G 5815   2.129   1.926   4.395
  112POPC   C2H 5816   2.067   1.908   4.256
  112POPC   C2I 5817   2.157   1.967   4.147
  112POPC   C2J 5818   2.082   1.976   4.015
  112POPC   C2K 5819   2.165   2.038   3.903
  112POPC   C2L 5820   2.072   2.089   3.793
  112POPC   C2M 5821   2.142   2.107   3.658
  112POPC   C2N 5822   2.042   2.163   3.556
  112POPC   C2O 5823   2.087   2.135   3.412
  112POPC   C2P 5824   1.986   2.194   3.313
  113POPC   CN1 5825   3.827   4.709   5.634
  113POPC   CN2 5826   4.021   4.635   5.526
  113POPC   CN3 5827   4.016   4.631   5.763
  113POPC   NTM 5828   3.973   4.708   5.645
  113POPC    CA 5829   4.022   4.848   5.650
  113POPC    CB 5830   4.173   4.880   5.661
  113POPC    OA 5831   4.245   4.836   5.548
  113POPC     P 5832   4.383   4.773   5.590
  113POPC    OB 5833   4.341   4.665   5.680
  113POPC    OC 5834   4.459   4.881   5.655
  113POPC    OD 5835   4.455   4.717   5.463
  113POPC    CC 5836   4.422   4.770   5.333
  113POPC    CD 5837   4.299   4.706   5.266
  113POPC    OE 5838   4.324   4.589   5.185
  113POPC   C1A 5839   4.240   4.487   5.200
  113POPC    OF 5840   4.170   4.483   5.301
  113POPC   C1B 5841   4.273   4.373   5.110
  113POPC   C1C 5842   4.158   4.300   5.042
  113POPC   C1D 5843   4.171   4.308   4.890
  113POPC   C1E 5844   4.076   4.207   4.825
  113POPC   C1F 5845   4.059   4.231   4.675
  113POPC   C1G 5846   3.973   4.121   4.614
  113POPC   C1H 5847   3.930   4.154   4.471
  113POPC   C1I 5848   3.864   4.030   4.409
  113POPC   C1J 5849   3.857   4.016   4.277
  113POPC   C1K 5850   3.907   4.126   4.184
  113POPC   C1L 5851   3.890   4.093   4.035
  113POPC   C1M 5852   3.746   4.056   3.996
  113POPC   C1N 5853   3.711   4.090   3.850
  113POPC   C1O 5854   3.798   4.020   3.745
  113POPC   C1P 5855   3.754   4.065   3.606
  113POPC   C1Q 5856   3.842   4.007   3.496
  113POPC   C1R 5857   3.803   4.063   3.360
  113POPC    CE 5858   4.216   4.817   5.198
  113POPC    OG 5859   4.280   4.895   5.097
  113POPC   C2A 5860   4.200   4.935   4.998
  113POPC    OH 5861   4.078   4.928   5.009
  113POPC   C2B 5862   4.272   5.000   4.886
  113POPC   C2C 5863   4.305   4.900   4.775
  113POPC   C2D 5864   4.366   4.970   4.654
  113POPC   C2E 5865   4.391   4.870   4.541
  113POPC   C2F 5866   4.451   4.936   4.416
  113POPC   C2G 5867   4.483   4.828   4.312
  113POPC   C2H 5868   4.543   4.884   4.184
  113POPC   C2I 5869   4.586   4.769   4.093
  113POPC   C2J 5870   4.642   4.815   3.959
  113POPC   C2K 5871   4.693   4.694   3.882
  113POPC   C2L 5872   4.746   4.729   3.743
  113POPC   C2M 5873   4.809   4.605   3.679
  113POPC   C2N 5874   4.860   4.633   3.538
  113POPC   C2O 5875   4.937   4.511   3.486
  113POPC   C2P 5876   4.982   4.531   3.341
  114POPC   CN1 5877   1.436   0.067   5.654
  114POPC   CN2 5878   1.423   0.289   5.593
  114POPC   CN3 5879   1.399   0.233   5.828
  114POPC   NTM 5880   1.370   0.192   5.690
  114POPC    CA 5881   1.224   0.176   5.670
  114POPC    CB 5882   1.124   0.282   5.722
  114POPC    OA 5883   1.179   0.412   5.704
  114POPC     P 5884   1.080   0.530   5.667
  114POPC    OB 5885   1.144   0.625   5.761
  114POPC    OC 5886   0.948   0.473   5.692
  114POPC    OD 5887   1.129   0.542   5.518
  114POPC    CC 5888   1.082   0.450   5.417
  114POPC    CD 5889   1.199   0.387   5.338
  114POPC    OE 5890   1.247   0.470   5.230
  114POPC   C1A 5891   1.378   0.488   5.213
  114POPC    OF 5892   1.447   0.496   5.316
  114POPC   C1B 5893   1.398   0.551   5.079
  114POPC   C1C 5894   1.519   0.519   4.990
  114POPC   C1D 5895   1.488   0.569   4.848
  114POPC   C1E 5896   1.597   0.570   4.740
  114POPC   C1F 5897   1.641   0.433   4.686
  114POPC   C1G 5898   1.682   0.431   4.538
  114POPC   C1H 5899   1.680   0.287   4.484
  114POPC   C1I 5900   1.805   0.238   4.410
  114POPC   C1J 5901   1.819   0.238   4.278
  114POPC   C1K 5902   1.712   0.294   4.182
  114POPC   C1L 5903   1.754   0.303   4.035
  114POPC   C1M 5904   1.800   0.169   3.978
  114POPC   C1N 5905   1.785   0.153   3.826
  114POPC   C1O 5906   1.852   0.262   3.742
  114POPC   C1P 5907   1.881   0.214   3.600
  114POPC   C1Q 5908   1.757   0.173   3.521
  114POPC   C1R 5909   1.798   0.113   3.386
  114POPC    CE 5910   1.161   0.244   5.295
  114POPC    OG 5911   1.059   0.236   5.195
  114POPC   C2A 5912   1.104   0.248   5.070
  114POPC    OH 5913   1.217   0.210   5.041
  114POPC   C2B 5914   0.995   0.288   4.978
  114POPC   C2C 5915   1.033   0.279   4.831
  114POPC   C2D 5916   0.907   0.283   4.744
  114POPC   C2E 5917   0.944   0.234   4.605
  114POPC   C2F 5918   0.825   0.208   4.513
  114POPC   C2G 5919   0.880   0.149   4.383
  114POPC   C2H 5920   0.779   0.153   4.268
  114POPC   C2I 5921   0.856   0.168   4.136
  114POPC   C2J 5922   0.758   0.192   4.022
  114POPC   C2K 5923   0.828   0.251   3.900
  114POPC   C2L 5924   0.726   0.278   3.790
  114POPC   C2M 5925   0.789   0.353   3.673
  114POPC   C2N 5926   0.686   0.372   3.561
  114POPC   C2O 5927   0.748   0.448   3.443
  114POPC   C2P 5928   0.647   0.461   3.329
  115POPC   CN1 5929   4.657   0.665   5.768
  115POPC   CN2 5930   4.498   0.728   5.609
  115POPC   CN3 5931   4.471   0.809   5.831
  115POPC   NTM 5932   4.516   0.694   5.752
  115POPC    CA 5933   4.441   0.573   5.794
  115POPC    CB 5934   4.288   0.577   5.789
  115POPC    OA 5935   4.248   0.588   5.655
  115POPC     P 5936   4.119   0.678   5.630
  115POPC    OB 5937   4.168   0.794   5.707
  115POPC    OC 5938   4.039   0.571   5.688
  115POPC    OD 5939   4.157   0.685   5.476
  115POPC    CC 5940   4.177   0.566   5.398
  115POPC    CD 5941   4.312   0.565   5.324
  115POPC    OE 5942   4.322   0.655   5.211
  115POPC   C1A 5943   4.443   0.704   5.187
  115POPC    OF 5944   4.525   0.718   5.279
  115POPC   C1B 5945   4.456   0.754   5.049
  115POPC   C1C 5946   4.587   0.707   4.988
  115POPC   C1D 5947   4.575   0.614   4.868
  115POPC   C1E 5948   4.594   0.693   4.739
  115POPC   C1F 5949   4.705   0.635   4.650
  115POPC   C1G 5950   4.728   0.728   4.531
  115POPC   C1H 5951   4.831   0.677   4.430
  115POPC   C1I 5952   4.834   0.770   4.309
  115POPC   C1J 5953   4.860   0.727   4.186
  115POPC   C1K 5954   4.891   0.580   4.154
  115POPC   C1L 5955   4.929   0.563   4.006
  115POPC   C1M 5956   4.944   0.416   3.966
  115POPC   C1N 5957   4.993   0.392   3.822
  115POPC   C1O 5958   4.912   0.469   3.716
  115POPC   C1P 5959   4.933   0.420   3.572
  115POPC   C1Q 5960   4.869   0.283   3.547
  115POPC   C1R 5961   4.867   0.251   3.397
  115POPC    CE 5962   4.360   0.422   5.295
  115POPC    OG 5963   4.295   0.315   5.222
  115POPC   C2A 5964   4.329   0.297   5.094
  115POPC    OH 5965   4.438   0.340   5.053
  115POPC   C2B 5966   4.248   0.195   5.021
  115POPC   C2C 5967   4.259   0.202   4.868
  115POPC   C2D 5968   4.145   0.132   4.793
  115POPC   C2E 5969   4.161   0.126   4.640
  115POPC   C2F 5970   4.029   0.089   4.571
  115POPC   C2G 5971   4.040   0.064   4.419
  115POPC   C2H 5972   3.901   0.040   4.359
  115POPC   C2I 5973   3.901  -0.006   4.212
  115POPC   C2J 5974   3.759  -0.016   4.155
  115POPC   C2K 5975   3.759  -0.036   4.003
  115POPC   C2L 5976   3.621  -0.025   3.938
  115POPC   C2M 5977   3.614   0.073   3.821
  115POPC   C2N 5978   3.624   0.016   3.679
  115POPC   C2O 5979   3.616   0.130   3.577
  115POPC   C2P 5980   3.605   0.082   3.432
  116POPC   CN1 5981   5.475   1.817   5.784
  116POPC   CN2 5982   5.337   1.700   5.632
  116POPC   CN3 5983   5.292   1.684   5.867
  116POPC   NTM 5984   5.399   1.693   5.765
  116POPC    CA 5985   5.495   1.581   5.779
  116POPC    CB 5986   5.450   1.433   5.765
  116POPC    OA 5987   5.399   1.404   5.636
  116POPC     P 5988   5.277   1.307   5.648
  116POPC    OB 5989   5.186   1.384   5.734
  116POPC    OC 5990   5.331   1.181   5.699
  116POPC    OD 5991   5.211   1.286   5.507
  116POPC    CC 5992   5.288   1.301   5.388
  116POPC    CD 5993   5.311   1.447   5.342
  116POPC    OE 5994   5.220   1.497   5.242
  116POPC   C1A 5995   5.190   1.626   5.248
  116POPC    OF 5996   5.210   1.690   5.353
  116POPC   C1B 5997   5.123   1.674   5.126
  116POPC   C1C 5998   5.193   1.796   5.065
  116POPC   C1D 5999   5.211   1.777   4.914
  116POPC   C1E 6000   5.177   1.904   4.837
  116POPC   C1F 6001   5.198   1.886   4.687
  116POPC   C1G 6002   5.128   1.998   4.608
  116POPC   C1H 6003   5.155   1.988   4.458
  116POPC   C1I 6004   5.087   2.103   4.383
  116POPC   C1J 6005   5.046   2.085   4.258
  116POPC   C1K 6006   5.068   1.949   4.192
  116POPC   C1L 6007   5.080   1.952   4.039
  116POPC   C1M 6008   5.199   2.036   3.992
  116POPC   C1N 6009   5.239   2.020   3.845
  116POPC   C1O 6010   5.122   2.030   3.746
  116POPC   C1P 6011   5.166   2.060   3.602
  116POPC   C1Q 6012   5.280   1.974   3.548
  116POPC   C1R 6013   5.304   2.001   3.399
  116POPC    CE 6014   5.459   1.459   5.304
  116POPC    OG 6015   5.503   1.378   5.194
  116POPC   C2A 6016   5.499   1.438   5.074
  116POPC    OH 6017   5.496   1.560   5.065
  116POPC   C2B 6018   5.532   1.343   4.965
  116POPC   C2C 6019   5.466   1.377   4.831
  116POPC   C2D 6020   5.510   1.272   4.729
  116POPC   C2E 6021   5.451   1.302   4.591
  116POPC   C2F 6022   5.496   1.203   4.484
  116POPC   C2G 6023   5.413   1.229   4.359
  116POPC   C2H 6024   5.455   1.149   4.235
  116POPC   C2I 6025   5.345   1.170   4.131
  116POPC   C2J 6026   5.382   1.128   3.989
  116POPC   C2K 6027   5.256   1.143   3.903
  116POPC   C2L 6028   5.283   1.128   3.753
  116POPC   C2M 6029   5.150   1.131   3.678
  116POPC   C2N 6030   5.168   1.096   3.530
  116POPC   C2O 6031   5.032   1.078   3.464
  116POPC   C2P 6032   5.047   1.026   3.320
  117POPC   CN1 6033   2.760   5.615   5.930
  117POPC   CN2 6034   2.751   5.682   5.702
  117POPC   CN3 6035   2.868   5.816   5.861
  117POPC   NTM 6036   2.750   5.731   5.841
  117POPC    CA 6037   2.626   5.806   5.872
  117POPC    CB 6038   2.598   5.942   5.804
  117POPC    OA 6039   2.627   5.943   5.665
  117POPC     P 6040   2.649   6.092   5.623
  117POPC    OB 6041   2.758   6.133   5.714
  117POPC    OC 6042   2.518   6.155   5.637
  117POPC    OD 6043   2.697   6.081   5.475
  117POPC    CC 6044   2.608   6.015   5.386
  117POPC    CD 6045   2.671   5.889   5.324
  117POPC    OE 6046   2.751   5.914   5.206
  117POPC   C1A 6047   2.841   5.823   5.171
  117POPC    OF 6048   2.864   5.728   5.247
  117POPC   C1B 6049   2.915   5.858   5.048
  117POPC   C1C 6050   2.956   5.736   4.966
  117POPC   C1D 6051   2.852   5.693   4.862
  117POPC   C1E 6052   2.897   5.560   4.801
  117POPC   C1F 6053   2.849   5.535   4.658
  117POPC   C1G 6054   2.915   5.406   4.608
  117POPC   C1H 6055   2.916   5.385   4.457
  117POPC   C1I 6056   3.018   5.275   4.424
  117POPC   C1J 6057   3.076   5.254   4.305
  117POPC   C1K 6058   3.042   5.334   4.179
  117POPC   C1L 6059   3.105   5.278   4.050
  117POPC   C1M 6060   3.061   5.135   4.017
  117POPC   C1N 6061   2.993   5.115   3.881
  117POPC   C1O 6062   3.087   5.131   3.760
  117POPC   C1P 6063   3.025   5.080   3.629
  117POPC   C1Q 6064   2.896   5.151   3.587
  117POPC   C1R 6065   2.847   5.107   3.449
  117POPC    CE 6066   2.558   5.788   5.299
  117POPC    OG 6067   2.460   5.825   5.200
  117POPC   C2A 6068   2.468   5.755   5.086
  117POPC    OH 6069   2.526   5.647   5.082
  117POPC   C2B 6070   2.380   5.808   4.980
  117POPC   C2C 6071   2.459   5.882   4.872
  117POPC   C2D 6072   2.363   5.941   4.769
  117POPC   C2E 6073   2.434   6.007   4.651
  117POPC   C2F 6074   2.331   6.060   4.551
  117POPC   C2G 6075   2.395   6.103   4.419
  117POPC   C2H 6076   2.289   6.123   4.311
  117POPC   C2I 6077   2.356   6.138   4.173
  117POPC   C2J 6078   2.254   6.147   4.060
  117POPC   C2K 6079   2.328   6.155   3.927
  117POPC   C2L 6080   2.236   6.162   3.805
  117POPC   C2M 6081   2.321   6.158   3.678
  117POPC   C2N 6082   2.236   6.169   3.551
  117POPC   C2O 6083   2.324   6.153   3.427
  117POPC   C2P 6084   2.245   6.177   3.299
  118POPC   CN1 6085   4.378   3.385   5.602
  118POPC   CN2 6086   4.216   3.512   5.495
  118POPC   CN3 6087   4.272   3.572   5.715
  118POPC   NTM 6088   4.252   3.457   5.626
  118POPC    CA 6089   4.149   3.362   5.676
  118POPC    CB 6090   4.006   3.408   5.717
  118POPC    OA 6091   3.936   3.461   5.607
  118POPC     P 6092   3.850   3.592   5.634
  118POPC    OB 6093   3.947   3.664   5.719
  118POPC    OC 6094   3.724   3.545   5.693
  118POPC    OD 6095   3.851   3.642   5.485
  118POPC    CC 6096   3.808   3.556   5.378
  118POPC    CD 6097   3.925   3.509   5.290
  118POPC    OE 6098   3.943   3.588   5.171
  118POPC   C1A 6099   4.061   3.647   5.155
  118POPC    OF 6100   4.152   3.629   5.236
  118POPC   C1B 6101   4.061   3.745   5.044
  118POPC   C1C 6102   4.173   3.724   4.942
  118POPC   C1D 6103   4.141   3.612   4.843
  118POPC   C1E 6104   4.255   3.607   4.741
  118POPC   C1F 6105   4.223   3.521   4.619
  118POPC   C1G 6106   4.337   3.541   4.519
  118POPC   C1H 6107   4.308   3.482   4.381
  118POPC   C1I 6108   4.414   3.536   4.286
  118POPC   C1J 6109   4.392   3.555   4.156
  118POPC   C1K 6110   4.259   3.515   4.092
  118POPC   C1L 6111   4.269   3.501   3.939
  118POPC   C1M 6112   4.377   3.402   3.894
  118POPC   C1N 6113   4.373   3.368   3.745
  118POPC   C1O 6114   4.382   3.490   3.653
  118POPC   C1P 6115   4.403   3.450   3.506
  118POPC   C1Q 6116   4.291   3.362   3.451
  118POPC   C1R 6117   4.317   3.323   3.306
  118POPC    CE 6118   3.926   3.355   5.278
  118POPC    OG 6119   3.845   3.293   5.178
  118POPC   C2A 6120   3.906   3.263   5.063
  118POPC    OH 6121   4.028   3.276   5.050
  118POPC   C2B 6122   3.813   3.203   4.966
  118POPC   C2C 6123   3.845   3.237   4.820
  118POPC   C2D 6124   3.731   3.184   4.734
  118POPC   C2E 6125   3.745   3.221   4.587
  118POPC   C2F 6126   3.610   3.199   4.519
  118POPC   C2G 6127   3.615   3.240   4.372
  118POPC   C2H 6128   3.473   3.250   4.314
  118POPC   C2I 6129   3.483   3.305   4.172
  118POPC   C2J 6130   3.347   3.325   4.105
  118POPC   C2K 6131   3.370   3.356   3.958
  118POPC   C2L 6132   3.241   3.349   3.876
  118POPC   C2M 6133   3.276   3.352   3.727
  118POPC   C2N 6134   3.152   3.337   3.640
  118POPC   C2O 6135   3.188   3.346   3.491
  118POPC   C2P 6136   3.063   3.337   3.404
  119POPC   CN1 6137   4.606   4.555   5.818
  119POPC   CN2 6138   4.734   4.581   5.623
  119POPC   CN3 6139   4.841   4.570   5.838
  119POPC   NTM 6140   4.725   4.621   5.765
  119POPC    CA 6141   4.710   4.769   5.770
  119POPC    CB 6142   4.836   4.860   5.773
  119POPC    OA 6143   4.935   4.812   5.684
  119POPC     P 6144   5.075   4.882   5.692
  119POPC    OB 6145   5.133   4.796   5.797
  119POPC    OC 6146   5.045   5.022   5.721
  119POPC    OD 6147   5.122   4.856   5.545
  119POPC    CC 6148   5.042   4.913   5.439
  119POPC    CD 6149   4.945   4.815   5.370
  119POPC    OE 6150   5.006   4.740   5.262
  119POPC   C1A 6151   4.954   4.621   5.235
  119POPC    OF 6152   4.895   4.564   5.328
  119POPC   C1B 6153   4.989   4.574   5.099
  119POPC   C1C 6154   4.953   4.429   5.062
  119POPC   C1D 6155   4.963   4.415   4.910
  119POPC   C1E 6156   4.881   4.297   4.855
  119POPC   C1F 6157   4.865   4.316   4.704
  119POPC   C1G 6158   4.772   4.214   4.637
  119POPC   C1H 6159   4.743   4.260   4.494
  119POPC   C1I 6160   4.673   4.156   4.407
  119POPC   C1J 6161   4.660   4.180   4.277
  119POPC   C1K 6162   4.712   4.312   4.219
  119POPC   C1L 6163   4.722   4.314   4.067
  119POPC   C1M 6164   4.585   4.315   4.000
  119POPC   C1N 6165   4.592   4.305   3.847
  119POPC   C1O 6166   4.651   4.172   3.799
  119POPC   C1P 6167   4.625   4.145   3.651
  119POPC   C1Q 6168   4.689   4.248   3.558
  119POPC   C1R 6169   4.663   4.215   3.411
  119POPC    CE 6170   4.820   4.894   5.325
  119POPC    OG 6171   4.841   4.980   5.213
  119POPC   C2A 6172   4.802   4.930   5.096
  119POPC    OH 6173   4.704   4.857   5.091
  119POPC   C2B 6174   4.865   5.000   4.982
  119POPC   C2C 6175   4.892   4.920   4.855
  119POPC   C2D 6176   4.983   5.004   4.765
  119POPC   C2E 6177   4.980   4.964   4.618
  119POPC   C2F 6178   5.061   5.063   4.533
  119POPC   C2G 6179   5.043   5.034   4.384
  119POPC   C2H 6180   5.119   5.133   4.296
  119POPC   C2I 6181   5.117   5.084   4.151
  119POPC   C2J 6182   5.200   5.172   4.058
  119POPC   C2K 6183   5.239   5.089   3.935
  119POPC   C2L 6184   5.322   5.168   3.834
  119POPC   C2M 6185   5.384   5.071   3.733
  119POPC   C2N 6186   5.456   5.143   3.619
  119POPC   C2O 6187   5.524   5.041   3.527
  119POPC   C2P 6188   5.585   5.109   3.404
  120POPC   CN1 6189   2.515   2.777   5.613
  120POPC   CN2 6190   2.718   2.871   5.548
  120POPC   CN3 6191   2.678   2.832   5.780
  120POPC   NTM 6192   2.617   2.875   5.654
  120POPC    CA 6193   2.556   3.010   5.660
  120POPC    CB 6194   2.635   3.132   5.714
  120POPC    OA 6195   2.756   3.164   5.647
  120POPC     P 6196   2.783   3.321   5.631
  120POPC    OB 6197   2.898   3.344   5.721
  120POPC    OC 6198   2.655   3.385   5.660
  120POPC    OD 6199   2.828   3.334   5.481
  120POPC    CC 6200   2.733   3.306   5.377
  120POPC    CD 6201   2.740   3.163   5.320
  120POPC    OE 6202   2.853   3.135   5.234
  120POPC   C1A 6203   2.885   3.008   5.209
  120POPC    OF 6204   2.841   2.920   5.284
  120POPC   C1B 6205   2.986   2.994   5.101
  120POPC   C1C 6206   3.000   2.850   5.049
  120POPC   C1D 6207   3.011   2.847   4.896
  120POPC   C1E 6208   3.058   2.711   4.843
  120POPC   C1F 6209   3.060   2.711   4.690
  120POPC   C1G 6210   3.105   2.579   4.626
  120POPC   C1H 6211   3.114   2.594   4.474
  120POPC   C1I 6212   3.133   2.461   4.401
  120POPC   C1J 6213   3.124   2.455   4.268
  120POPC   C1K 6214   3.100   2.583   4.188
  120POPC   C1L 6215   3.128   2.575   4.037
  120POPC   C1M 6216   3.028   2.483   3.966
  120POPC   C1N 6217   3.001   2.518   3.818
  120POPC   C1O 6218   3.119   2.497   3.723
  120POPC   C1P 6219   3.075   2.470   3.578
  120POPC   C1Q 6220   2.977   2.573   3.521
  120POPC   C1R 6221   2.957   2.557   3.370
  120POPC    CE 6222   2.601   3.132   5.259
  120POPC    OG 6223   2.565   3.207   5.143
  120POPC   C2A 6224   2.581   3.142   5.027
  120POPC    OH 6225   2.623   3.026   5.023
  120POPC   C2B 6226   2.544   3.224   4.910
  120POPC   C2C 6227   2.630   3.187   4.789
  120POPC   C2D 6228   2.600   3.279   4.672
  120POPC   C2E 6229   2.689   3.244   4.553
  120POPC   C2F 6230   2.660   3.341   4.439
  120POPC   C2G 6231   2.745   3.310   4.316
  120POPC   C2H 6232   2.703   3.405   4.204
  120POPC   C2I 6233   2.793   3.394   4.082
  120POPC   C2J 6234   2.748   3.493   3.975
  120POPC   C2K 6235   2.858   3.509   3.871
  120POPC   C2L 6236   2.815   3.594   3.752
  120POPC   C2M 6237   2.940   3.628   3.671
  120POPC   C2N 6238   2.911   3.682   3.532
  120POPC   C2O 6239   3.043   3.714   3.462
  120POPC   C2P 6240   3.023   3.755   3.317
  121POPC   CN1 6241   0.673   4.687   5.498
  121POPC   CN2 6242   0.482   4.554   5.492
  121POPC   CN3 6243   0.537   4.674   5.690
  121POPC   NTM 6244   0.592   4.595   5.580
  121POPC    CA 6245   0.672   4.481   5.630
  121POPC    CB 6246   0.601   4.354   5.683
  121POPC    OA 6247   0.553   4.273   5.579
  121POPC     P 6248   0.450   4.164   5.627
  121POPC    OB 6249   0.350   4.247   5.694
  121POPC    OC 6250   0.529   4.072   5.710
  121POPC    OD 6251   0.388   4.099   5.497
  121POPC    CC 6252   0.457   4.111   5.371
  121POPC    CD 6253   0.432   4.242   5.293
  121POPC    OE 6254   0.314   4.241   5.209
  121POPC   C1A 6255   0.237   4.349   5.203
  121POPC    OF 6256   0.244   4.433   5.293
  121POPC   C1B 6257   0.123   4.329   5.110
  121POPC   C1C 6258   0.062   4.455   5.046
  121POPC   C1D 6259   0.118   4.483   4.907
  121POPC   C1E 6260   0.026   4.577   4.826
  121POPC   C1F 6261   0.080   4.597   4.685
  121POPC   C1G 6262   0.001   4.698   4.601
  121POPC   C1H 6263   0.062   4.712   4.461
  121POPC   C1I 6264  -0.004   4.827   4.385
  121POPC   C1J 6265  -0.026   4.827   4.254
  121POPC   C1K 6266   0.011   4.708   4.165
  121POPC   C1L 6267  -0.003   4.738   4.015
  121POPC   C1M 6268   0.099   4.840   3.962
  121POPC   C1N 6269   0.104   4.845   3.809
  121POPC   C1O 6270  -0.027   4.893   3.746
  121POPC   C1P 6271  -0.019   4.903   3.593
  121POPC   C1Q 6272  -0.014   4.767   3.524
  121POPC   C1R 6273  -0.007   4.783   3.372
  121POPC    CE 6274   0.564   4.273   5.220
  121POPC    OG 6275   0.598   4.178   5.119
  121POPC   C2A 6276   0.545   4.203   5.000
  121POPC    OH 6277   0.529   4.320   4.964
  121POPC   C2B 6278   0.539   4.084   4.913
  121POPC   C2C 6279   0.516   4.117   4.766
  121POPC   C2D 6280   0.531   3.989   4.684
  121POPC   C2E 6281   0.506   4.017   4.536
  121POPC   C2F 6282   0.536   3.892   4.454
  121POPC   C2G 6283   0.498   3.916   4.308
  121POPC   C2H 6284   0.520   3.790   4.224
  121POPC   C2I 6285   0.446   3.810   4.092
  121POPC   C2J 6286   0.441   3.688   4.001
  121POPC   C2K 6287   0.313   3.703   3.918
  121POPC   C2L 6288   0.300   3.613   3.796
  121POPC   C2M 6289   0.166   3.647   3.730
  121POPC   C2N 6290   0.148   3.586   3.591
  121POPC   C2O 6291   0.014   3.629   3.533
  121POPC   C2P 6292  -0.008   3.570   3.394
  122POPC   CN1 6293   4.203   5.907   5.599
  122POPC   CN2 6294   4.073   6.099   5.577
  122POPC   CN3 6295   4.195   6.067   5.776
  122POPC   NTM 6296   4.116   5.998   5.674
  122POPC    CA 6297   4.008   5.918   5.737
  122POPC    CB 6298   3.874   5.981   5.782
  122POPC    OA 6299   3.793   6.015   5.671
  122POPC     P 6300   3.715   6.156   5.677
  122POPC    OB 6301   3.812   6.223   5.767
  122POPC    OC 6302   3.600   6.085   5.732
  122POPC    OD 6303   3.752   6.168   5.524
  122POPC    CC 6304   3.691   6.090   5.420
  122POPC    CD 6305   3.803   6.030   5.333
  122POPC    OE 6306   3.844   6.107   5.219
  122POPC   C1A 6307   3.975   6.121   5.201
  122POPC    OF 6308   4.054   6.075   5.284
  122POPC   C1B 6309   4.008   6.205   5.085
  122POPC   C1C 6310   4.141   6.165   5.020
  122POPC   C1D 6311   4.119   6.083   4.893
  122POPC   C1E 6312   4.248   6.084   4.812
  122POPC   C1F 6313   4.224   6.036   4.669
  122POPC   C1G 6314   4.344   6.071   4.580
  122POPC   C1H 6315   4.315   6.039   4.433
  122POPC   C1I 6316   4.431   6.084   4.345
  122POPC   C1J 6317   4.411   6.127   4.220
  122POPC   C1K 6318   4.271   6.131   4.158
  122POPC   C1L 6319   4.272   6.143   4.005
  122POPC   C1M 6320   4.349   6.028   3.940
  122POPC   C1N 6321   4.332   6.015   3.788
  122POPC   C1O 6322   4.389   6.131   3.707
  122POPC   C1P 6323   4.406   6.093   3.559
  122POPC   C1Q 6324   4.276   6.048   3.493
  122POPC   C1R 6325   4.295   6.019   3.344
  122POPC    CE 6326   3.793   5.877   5.315
  122POPC    OG 6327   3.710   5.810   5.218
  122POPC   C2A 6328   3.756   5.804   5.093
  122POPC    OH 6329   3.878   5.798   5.075
  122POPC   C2B 6330   3.653   5.763   4.995
  122POPC   C2C 6331   3.696   5.755   4.848
  122POPC   C2D 6332   3.572   5.765   4.759
  122POPC   C2E 6333   3.596   5.774   4.608
  122POPC   C2F 6334   3.486   5.859   4.542
  122POPC   C2G 6335   3.506   5.878   4.391
  122POPC   C2H 6336   3.409   5.981   4.331
  122POPC   C2I 6337   3.427   5.990   4.179
  122POPC   C2J 6338   3.330   6.088   4.112
  122POPC   C2K 6339   3.346   6.083   3.960
  122POPC   C2L 6340   3.259   6.185   3.886
  122POPC   C2M 6341   3.289   6.178   3.736
  122POPC   C2N 6342   3.206   6.278   3.654
  122POPC   C2O 6343   3.238   6.265   3.505
  122POPC   C2P 6344   3.149   6.355   3.420
  123POPC   CN1 6345   0.170   3.995   5.851
  123POPC   CN2 6346   0.161   3.877   5.646
  123POPC   CN3 6347   0.030   3.803   5.832
  123POPC   NTM 6348   0.160   3.861   5.793
  123POPC    CA 6349   0.275   3.781   5.840
  123POPC    CB 6350   0.279   3.628   5.816
  123POPC    OA 6351   0.267   3.597   5.678
  123POPC     P 6352   0.194   3.459   5.658
  123POPC    OB 6353   0.069   3.485   5.731
  123POPC    OC 6354   0.298   3.370   5.711
  123POPC    OD 6355   0.177   3.457   5.502
  123POPC    CC 6356   0.288   3.496   5.421
  123POPC    CD 6357   0.271   3.637   5.361
  123POPC    OE 6358   0.185   3.640   5.245
  123POPC   C1A 6359   0.111   3.748   5.223
  123POPC    OF 6360   0.106   3.837   5.308
  123POPC   C1B 6361   0.022   3.731   5.105
  123POPC   C1C 6362  -0.003   3.858   5.024
  123POPC   C1D 6363   0.096   3.877   4.909
  123POPC   C1E 6364   0.049   3.993   4.821
  123POPC   C1F 6365   0.123   3.998   4.687
  123POPC   C1G 6366   0.063   4.106   4.596
  123POPC   C1H 6367   0.125   4.099   4.456
  123POPC   C1I 6368   0.057   4.197   4.359
  123POPC   C1J 6369   0.043   4.162   4.232
  123POPC   C1K 6370   0.094   4.025   4.186
  123POPC   C1L 6371   0.114   4.010   4.034
  123POPC   C1M 6372   0.222   4.104   3.979
  123POPC   C1N 6373   0.276   4.069   3.839
  123POPC   C1O 6374   0.169   4.038   3.733
  123POPC   C1P 6375   0.222   4.049   3.590
  123POPC   C1Q 6376   0.352   3.973   3.562
  123POPC   C1R 6377   0.405   4.008   3.422
  123POPC    CE 6378   0.413   3.691   5.336
  123POPC    OG 6379   0.483   3.619   5.233
  123POPC   C2A 6380   0.466   3.671   5.112
  123POPC    OH 6381   0.464   3.793   5.097
  123POPC   C2B 6382   0.473   3.568   5.005
  123POPC   C2C 6383   0.436   3.622   4.867
  123POPC   C2D 6384   0.423   3.503   4.773
  123POPC   C2E 6385   0.416   3.544   4.626
  123POPC   C2F 6386   0.412   3.416   4.542
  123POPC   C2G 6387   0.436   3.442   4.394
  123POPC   C2H 6388   0.450   3.309   4.321
  123POPC   C2I 6389   0.467   3.331   4.171
  123POPC   C2J 6390   0.475   3.199   4.096
  123POPC   C2K 6391   0.481   3.226   3.946
  123POPC   C2L 6392   0.478   3.095   3.867
  123POPC   C2M 6393   0.479   3.124   3.717
  123POPC   C2N 6394   0.472   2.995   3.636
  123POPC   C2O 6395   0.468   3.027   3.487
  123POPC   C2P 6396   0.446   2.901   3.404
  124POPC   CN1 6397   1.625   5.878   5.546
  124POPC   CN2 6398   1.810   5.746   5.503
  124POPC   CN3 6399   1.768   5.801   5.730
  124POPC   NTM 6400   1.762   5.852   5.593
  124POPC    CA 6401   1.838   5.980   5.585
  124POPC    CB 6402   1.988   5.987   5.622
  124POPC    OA 6403   2.059   5.909   5.530
  124POPC     P 6404   2.164   5.811   5.591
  124POPC    OB 6405   2.091   5.745   5.701
  124POPC    OC 6406   2.290   5.878   5.620
  124POPC    OD 6407   2.172   5.707   5.475
  124POPC    CC 6408   2.195   5.753   5.340
  124POPC    CD 6409   2.069   5.752   5.251
  124POPC    OE 6410   2.064   5.651   5.148
  124POPC   C1A 6411   1.960   5.567   5.154
  124POPC    OF 6412   1.875   5.585   5.242
  124POPC   C1B 6413   1.955   5.476   5.037
  124POPC   C1C 6414   1.886   5.339   5.048
  124POPC   C1D 6415   1.859   5.283   4.907
  124POPC   C1E 6416   1.733   5.197   4.901
  124POPC   C1F 6417   1.652   5.201   4.770
  124POPC   C1G 6418   1.714   5.127   4.652
  124POPC   C1H 6419   1.627   5.137   4.525
  124POPC   C1I 6420   1.675   5.031   4.426
  124POPC   C1J 6421   1.655   5.028   4.294
  124POPC   C1K 6422   1.582   5.129   4.206
  124POPC   C1L 6423   1.626   5.101   4.062
  124POPC   C1M 6424   1.555   5.188   3.957
  124POPC   C1N 6425   1.596   5.157   3.812
  124POPC   C1O 6426   1.596   5.008   3.776
  124POPC   C1P 6427   1.557   4.978   3.631
  124POPC   C1Q 6428   1.634   5.060   3.526
  124POPC   C1R 6429   1.589   5.024   3.385
  124POPC    CE 6430   2.035   5.899   5.216
  124POPC    OG 6431   2.028   5.942   5.079
  124POPC   C2A 6432   1.917   5.919   5.010
  124POPC    OH 6433   1.810   5.897   5.069
  124POPC   C2B 6434   1.929   5.963   4.869
  124POPC   C2C 6435   1.991   5.856   4.778
  124POPC   C2D 6436   1.986   5.903   4.633
  124POPC   C2E 6437   2.047   5.801   4.536
  124POPC   C2F 6438   2.028   5.843   4.390
  124POPC   C2G 6439   2.092   5.741   4.297
  124POPC   C2H 6440   2.079   5.777   4.149
  124POPC   C2I 6441   2.140   5.663   4.067
  124POPC   C2J 6442   2.146   5.688   3.916
  124POPC   C2K 6443   2.212   5.565   3.853
  124POPC   C2L 6444   2.240   5.576   3.703
  124POPC   C2M 6445   2.319   5.453   3.660
  124POPC   C2N 6446   2.354   5.455   3.511
  124POPC   C2O 6447   2.447   5.338   3.477
  124POPC   C2P 6448   2.493   5.345   3.331
  125POPC   CN1 6449   2.430   4.597   5.702
  125POPC   CN2 6450   2.608   4.629   5.550
  125POPC   CN3 6451   2.660   4.561   5.777
  125POPC   NTM 6452   2.570   4.640   5.692
  125POPC    CA 6453   2.572   4.781   5.737
  125POPC    CB 6454   2.702   4.863   5.750
  125POPC    OA 6455   2.778   4.852   5.631
  125POPC     P 6456   2.876   4.973   5.611
  125POPC    OB 6457   2.969   4.945   5.721
  125POPC    OC 6458   2.779   5.084   5.617
  125POPC    OD 6459   2.918   4.924   5.468
  125POPC    CC 6460   2.821   4.945   5.364
  125POPC    CD 6461   2.783   4.822   5.279
  125POPC    OE 6462   2.888   4.782   5.190
  125POPC   C1A 6463   2.892   4.654   5.155
  125POPC    OF 6464   2.837   4.570   5.228
  125POPC   C1B 6465   2.993   4.630   5.049
  125POPC   C1C 6466   2.945   4.533   4.941
  125POPC   C1D 6467   2.841   4.590   4.844
  125POPC   C1E 6468   2.824   4.483   4.736
  125POPC   C1F 6469   2.741   4.523   4.614
  125POPC   C1G 6470   2.768   4.413   4.511
  125POPC   C1H 6471   2.698   4.433   4.377
  125POPC   C1I 6472   2.756   4.331   4.280
  125POPC   C1J 6473   2.740   4.346   4.149
  125POPC   C1K 6474   2.657   4.462   4.094
  125POPC   C1L 6475   2.685   4.482   3.946
  125POPC   C1M 6476   2.573   4.565   3.882
  125POPC   C1N 6477   2.596   4.599   3.734
  125POPC   C1O 6478   2.630   4.478   3.647
  125POPC   C1P 6479   2.582   4.488   3.502
  125POPC   C1Q 6480   2.636   4.610   3.427
  125POPC   C1R 6481   2.611   4.596   3.277
  125POPC    CE 6482   2.645   4.838   5.210
  125POPC    OG 6483   2.623   4.941   5.113
  125POPC   C2A 6484   2.526   4.917   5.023
  125POPC    OH 6485   2.461   4.813   5.028
  125POPC   C2B 6486   2.508   5.026   4.924
  125POPC   C2C 6487   2.514   4.981   4.777
  125POPC   C2D 6488   2.522   5.103   4.684
  125POPC   C2E 6489   2.538   5.067   4.536
  125POPC   C2F 6490   2.572   5.193   4.454
  125POPC   C2G 6491   2.588   5.165   4.304
  125POPC   C2H 6492   2.637   5.289   4.229
  125POPC   C2I 6493   2.650   5.265   4.078
  125POPC   C2J 6494   2.717   5.383   4.007
  125POPC   C2K 6495   2.712   5.363   3.855
  125POPC   C2L 6496   2.775   5.476   3.772
  125POPC   C2M 6497   2.927   5.476   3.762
  125POPC   C2N 6498   2.968   5.539   3.628
  125POPC   C2O 6499   3.118   5.531   3.601
  125POPC   C2P 6500   3.150   5.590   3.463
  126POPC   CN1 6501   0.566   3.214   5.651
  126POPC   CN2 6502   0.763   3.213   5.533
  126POPC   CN3 6503   0.764   3.156   5.765
  126POPC   NTM 6504   0.708   3.247   5.665
  126POPC    CA 6505   0.730   3.390   5.699
  126POPC    CB 6506   0.875   3.439   5.730
  126POPC    OA 6507   0.961   3.408   5.623
  126POPC     P 6508   1.118   3.405   5.645
  126POPC    OB 6509   1.140   3.261   5.637
  126POPC    OC 6510   1.139   3.465   5.779
  126POPC    OD 6511   1.171   3.491   5.525
  126POPC    CC 6512   1.090   3.529   5.411
  126POPC    CD 6513   1.031   3.423   5.315
  126POPC    OE 6514   1.110   3.395   5.198
  126POPC   C1A 6515   1.101   3.272   5.150
  126POPC    OF 6516   1.062   3.180   5.223
  126POPC   C1B 6517   1.154   3.263   5.012
  126POPC   C1C 6518   1.078   3.160   4.928
  126POPC   C1D 6519   1.111   3.172   4.779
  126POPC   C1E 6520   1.057   3.050   4.704
  126POPC   C1F 6521   1.047   3.077   4.554
  126POPC   C1G 6522   1.000   2.953   4.478
  126POPC   C1H 6523   0.943   2.995   4.342
  126POPC   C1I 6524   0.922   2.875   4.250
  126POPC   C1J 6525   0.950   2.891   4.121
  126POPC   C1K 6526   1.000   3.029   4.076
  126POPC   C1L 6527   1.000   3.051   3.924
  126POPC   C1M 6528   0.861   3.037   3.862
  126POPC   C1N 6529   0.852   3.088   3.718
  126POPC   C1O 6530   0.941   3.014   3.618
  126POPC   C1P 6531   0.883   3.017   3.477
  126POPC   C1Q 6532   0.860   3.158   3.422
  126POPC   C1R 6533   0.787   3.153   3.288
  126POPC    CE 6534   0.889   3.473   5.281
  126POPC    OG 6535   0.873   3.582   5.188
  126POPC   C2A 6536   0.838   3.545   5.064
  126POPC    OH 6537   0.791   3.434   5.044
  126POPC   C2B 6538   0.827   3.656   4.966
  126POPC   C2C 6539   0.932   3.652   4.854
  126POPC   C2D 6540   0.892   3.749   4.742
  126POPC   C2E 6541   0.991   3.744   4.625
  126POPC   C2F 6542   0.947   3.834   4.509
  126POPC   C2G 6543   1.032   3.807   4.384
  126POPC   C2H 6544   0.995   3.900   4.269
  126POPC   C2I 6545   1.049   3.849   4.135
  126POPC   C2J 6546   1.042   3.961   4.031
  126POPC   C2K 6547   1.062   3.917   3.885
  126POPC   C2L 6548   1.081   4.044   3.801
  126POPC   C2M 6549   1.097   4.024   3.651
  126POPC   C2N 6550   1.180   4.141   3.596
  126POPC   C2O 6551   1.217   4.125   3.448
  126POPC   C2P 6552   1.324   4.227   3.409
  127POPC   CN1 6553   4.284   3.956   5.614
  127POPC   CN2 6554   4.469   4.012   5.489
  127POPC   CN3 6555   4.501   3.895   5.693
  127POPC   NTM 6556   4.423   4.000   5.627
  127POPC    CA 6557   4.430   4.131   5.697
  127POPC    CB 6558   4.567   4.193   5.735
  127POPC    OA 6559   4.649   4.240   5.629
  127POPC     P 6560   4.797   4.185   5.641
  127POPC    OB 6561   4.786   4.039   5.646
  127POPC    OC 6562   4.835   4.254   5.765
  127POPC    OD 6563   4.876   4.247   5.520
  127POPC    CC 6564   4.814   4.293   5.398
  127POPC    CD 6565   4.713   4.213   5.313
  127POPC    OE 6566   4.769   4.129   5.209
  127POPC   C1A 6567   4.692   4.031   5.161
  127POPC    OF 6568   4.598   3.990   5.231
  127POPC   C1B 6569   4.751   3.961   5.044
  127POPC   C1C 6570   4.649   3.895   4.950
  127POPC   C1D 6571   4.570   3.993   4.863
  127POPC   C1E 6572   4.501   3.916   4.749
  127POPC   C1F 6573   4.435   4.007   4.645
  127POPC   C1G 6574   4.377   3.922   4.531
  127POPC   C1H 6575   4.322   4.004   4.414
  127POPC   C1I 6576   4.245   3.912   4.319
  127POPC   C1J 6577   4.272   3.901   4.189
  127POPC   C1K 6578   4.383   3.982   4.120
  127POPC   C1L 6579   4.371   3.983   3.967
  127POPC   C1M 6580   4.245   4.053   3.916
  127POPC   C1N 6581   4.242   4.080   3.765
  127POPC   C1O 6582   4.260   3.954   3.679
  127POPC   C1P 6583   4.224   3.977   3.532
  127POPC   C1Q 6584   4.305   4.086   3.463
  127POPC   C1R 6585   4.264   4.102   3.316
  127POPC    CE 6586   4.603   4.313   5.270
  127POPC    OG 6587   4.632   4.431   5.193
  127POPC   C2A 6588   4.597   4.427   5.064
  127POPC    OH 6589   4.568   4.319   5.011
  127POPC   C2B 6590   4.606   4.557   4.993
  127POPC   C2C 6591   4.572   4.545   4.844
  127POPC   C2D 6592   4.645   4.651   4.761
  127POPC   C2E 6593   4.656   4.607   4.615
  127POPC   C2F 6594   4.763   4.686   4.539
  127POPC   C2G 6595   4.804   4.616   4.410
  127POPC   C2H 6596   4.904   4.697   4.327
  127POPC   C2I 6597   4.956   4.617   4.207
  127POPC   C2J 6598   5.031   4.707   4.108
  127POPC   C2K 6599   5.089   4.626   3.992
  127POPC   C2L 6600   5.143   4.718   3.882
  127POPC   C2M 6601   5.209   4.638   3.770
  127POPC   C2N 6602   5.242   4.727   3.650
  127POPC   C2O 6603   5.313   4.647   3.540
  127POPC   C2P 6604   5.331   4.731   3.413
  128POPC   CN1 6605   5.318   3.493   5.786
  128POPC   CN2 6606   5.163   3.392   5.635
  128POPC   CN3 6607   5.144   3.352   5.872
  128POPC   NTM 6608   5.238   3.373   5.761
  128POPC    CA 6609   5.332   3.258   5.754
  128POPC    CB 6610   5.276   3.114   5.743
  128POPC    OA 6611   5.191   3.103   5.630
  128POPC     P 6612   5.136   2.956   5.609
  128POPC    OB 6613   5.026   2.961   5.707
  128POPC    OC 6614   5.259   2.878   5.623
  128POPC    OD 6615   5.092   2.975   5.460
  128POPC    CC 6616   5.198   3.005   5.368
  128POPC    CD 6617   5.182   3.146   5.307
  128POPC    OE 6618   5.087   3.148   5.198
  128POPC   C1A 6619   4.980   3.225   5.213
  128POPC    OF 6620   4.972   3.308   5.304
  128POPC   C1B 6621   4.874   3.191   5.114
  128POPC   C1C 6622   4.809   3.311   5.045
  128POPC   C1D 6623   4.891   3.361   4.926
  128POPC   C1E 6624   4.809   3.464   4.849
  128POPC   C1F 6625   4.872   3.498   4.714
  128POPC   C1G 6626   4.778   3.588   4.634
  128POPC   C1H 6627   4.831   3.610   4.493
  128POPC   C1I 6628   4.736   3.698   4.412
  128POPC   C1J 6629   4.727   3.681   4.280
  128POPC   C1K 6630   4.810   3.572   4.211
  128POPC   C1L 6631   4.791   3.569   4.059
  128POPC   C1M 6632   4.844   3.697   3.992
  128POPC   C1N 6633   4.847   3.690   3.839
  128POPC   C1O 6634   4.709   3.684   3.774
  128POPC   C1P 6635   4.715   3.722   3.625
  128POPC   C1Q 6636   4.805   3.630   3.542
  128POPC   C1R 6637   4.819   3.683   3.399
  128POPC    CE 6638   5.321   3.204   5.277
  128POPC    OG 6639   5.394   3.156   5.164
  128POPC   C2A 6640   5.377   3.225   5.051
  128POPC    OH 6641   5.334   3.341   5.054
  128POPC   C2B 6642   5.441   3.161   4.934
  128POPC   C2C 6643   5.356   3.177   4.808
  128POPC   C2D 6644   5.422   3.108   4.688
  128POPC   C2E 6645   5.331   3.120   4.566
  128POPC   C2F 6646   5.389   3.049   4.444
  128POPC   C2G 6647   5.289   3.058   4.329
  128POPC   C2H 6648   5.336   2.983   4.205
  128POPC   C2I 6649   5.228   2.992   4.097
  128POPC   C2J 6650   5.270   2.918   3.970
  128POPC   C2K 6651   5.160   2.929   3.864
  128POPC   C2L 6652   5.207   2.861   3.735
  128POPC   C2M 6653   5.102   2.868   3.624
  128POPC   C2N 6654   5.160   2.807   3.496
  128POPC   C2O 6655   5.056   2.806   3.384
  128POPC   C2P 6656   5.113   2.743   3.257
   6.31000   6.34000   6.00000
