pure POPC
 6656
    1POPC   CN1    1   3.961   4.527   0.710  0.1586 -0.2800  0.0485
    1POPC   CN2    2   4.067   4.357   0.577  0.7290  0.1385 -0.5546
    1POPC   CN3    3   4.184   4.462   0.755  0.3408  0.0110 -0.6652
    1POPC   NTM    4   4.087   4.484   0.647  0.0829  0.1592 -0.4050
    1POPC    CA    5   4.125   4.591   0.554 -0.5056  0.2926 -0.5002
    1POPC    CB    6   4.269   4.598   0.501 -0.0914 -0.1895  0.5227
    1POPC    OA    7   4.328   4.472   0.471  0.1750  0.2060 -0.6729
    1POPC     P    8   4.480   4.505   0.432  0.3266  0.2757 -0.0262
    1POPC    OB    9   4.553   4.564   0.546  0.2146  0.2077  0.0807
    1POPC    OC   10   4.482   4.573   0.300  0.0278  0.7330  0.2034
    1POPC    OD   11   4.531   4.353   0.411 -0.4453  0.0441 -0.2586
    1POPC    CC   12   4.520   4.277   0.532 -0.3844  0.0974 -0.2193
    1POPC    CD   13   4.535   4.125   0.526  0.3698  0.1679 -0.2876
    1POPC    OE   14   4.494   4.070   0.652 -0.1844 -0.2344 -0.6400
    1POPC   C1A   15   4.366   4.078   0.689 -0.0741 -0.1160 -0.2811
    1POPC    OF   16   4.284   4.101   0.600 -0.0235 -0.0635 -0.3145
    1POPC   C1B   17   4.339   4.035   0.828 -0.1616  0.4619 -0.1191
    1POPC   C1C   18   4.270   4.145   0.909 -0.6348 -0.0674  0.2047
    1POPC   C1D   19   4.364   4.214   1.008 -0.1234 -0.2307 -0.1625
    1POPC   C1E   20   4.285   4.284   1.118  0.1516  0.2265 -0.2544
    1POPC   C1F   21   4.332   4.256   1.261  0.0715 -0.2720 -0.3259
    1POPC   C1G   22   4.452   4.346   1.292 -0.2472  0.2576 -0.6150
    1POPC   C1H   23   4.525   4.323   1.424  0.1061  0.2014 -0.8185
    1POPC   C1I   24   4.643   4.419   1.441  0.4365 -0.2890 -0.2945
    1POPC   C1J   25   4.744   4.405   1.527  0.3753  0.4457 -0.0960
    1POPC   C1K   26   4.745   4.300   1.639  0.1214 -0.1403 -0.6333
    1POPC   C1L   27   4.880   4.293   1.709 -0.0447  0.2528 -0.2667
    1POPC   C1M   28   4.875   4.170   1.800  0.0979  0.2575 -0.2519
    1POPC   C1N   29   5.012   4.162   1.869  0.2032 -0.4048 -0.5285
    1POPC   C1O   30   5.105   4.058   1.807  0.7585 -0.1271 -0.1649
    1POPC   C1P   31   5.058   3.914   1.828  0.2592  0.0467 -0.0763
    1POPC   C1Q   32   5.130   3.820   1.730  0.7537  0.3413  0.0038
    1POPC   C1R   33   5.069   3.828   1.590 -0.6195 -0.8973  0.5099
    1POPC    CE   34   4.674   4.083   0.479  0.3783  0.1905 -0.2809
    1POPC    OG   35   4.687   3.950   0.430 -0.0078 -0.1511  0.5155
    1POPC   C2A   36   4.807   3.922   0.378  0.1160 -0.3089  0.8835
    1POPC    OH   37   4.905   3.996   0.391  0.2866 -0.3509 -0.0708
    1POPC   C2B   38   4.808   3.794   0.305  0.3758  0.0932  0.1653
    1POPC   C2C   39   4.731   3.690   0.387  0.4296 -0.3530 -0.3418
    1POPC   C2D   40   4.797   3.636   0.514  0.3472 -0.0693 -0.1774
    1POPC   C2E   41   4.922   3.551   0.487  0.3713  0.0017 -0.2925
    1POPC   C2F   42   5.008   3.520   0.609  0.2272  0.4212 -0.0818
    1POPC   C2G   43   4.935   3.446   0.722  0.3722 -0.1011 -0.3278
    1POPC   C2H   44   5.018   3.452   0.850  0.5424 -0.0617 -0.4394
    1POPC   C2I   45   5.031   3.595   0.903 -0.4241 -0.0501 -0.2095
    1POPC   C2J   46   5.101   3.605   1.039 -0.1028  0.6197 -0.4197
    1POPC   C2K   47   5.164   3.742   1.069  0.5460  0.2999 -0.2971
    1POPC   C2L   48   5.269   3.756   1.180 -0.0510 -0.3321  0.3624
    1POPC   C2M   49   5.397   3.678   1.148  0.4611  0.5812  0.1658
    1POPC   C2N   50   5.482   3.746   1.041  0.2572  0.2931 -0.1775
    1POPC   C2O   51   5.627   3.700   1.054  0.1679  0.2880  0.8488
    1POPC   C2P   52   5.719   3.775   0.958  0.1365 -0.3413  0.3204
    2POPC   CN1   53   5.524   4.421   0.498 -0.1912  0.0100  0.2039
    2POPC   CN2   54   5.511   4.180   0.476  0.7322 -0.1543 -0.3317
    2POPC   CN3   55   5.718   4.296   0.527 -0.0991 -0.3614 -0.1524
    2POPC   NTM   56   5.592   4.300   0.450  0.0214  0.3317 -0.3246
    2POPC    CA   57   5.619   4.325   0.308  0.2346  0.2555 -0.2986
    2POPC    CB   58   5.702   4.223   0.230  0.1030 -0.0525 -0.0389
    2POPC    OA   59   5.845   4.232   0.238  0.0712  0.0152  0.4402
    2POPC     P   60   5.905   4.097   0.175 -0.1075  0.1162  0.0496
    2POPC    OB   61   6.053   4.100   0.174 -0.0889 -0.4801  0.3742
    2POPC    OC   62   5.832   4.076   0.048 -0.1904 -0.0689  0.1272
    2POPC    OD   63   5.864   4.000   0.297 -0.0917  0.2055  0.1258
    2POPC    CC   64   5.965   4.010   0.398  0.3705 -0.1746 -0.2950
    2POPC    CD   65   5.946   3.991   0.549  0.1396 -0.0225 -0.3045
    2POPC    OE   66   6.054   4.040   0.629 -0.1227 -0.4378  0.3092
    2POPC   C1A   67   6.066   4.165   0.670  0.0051 -0.2862 -0.1858
    2POPC    OF   68   6.003   4.264   0.631  0.1547  0.1283  0.6098
    2POPC   C1B   69   6.193   4.184   0.743 -0.1967  0.4495 -0.0155
    2POPC   C1C   70   6.195   4.134   0.888 -0.2339  0.2658 -0.0782
    2POPC   C1D   71   6.131   4.232   0.987 -0.4438 -0.0761  0.1250
    2POPC   C1E   72   6.208   4.364   0.993 -0.0941 -0.2700 -0.0651
    2POPC   C1F   73   6.149   4.471   1.085  0.0852  0.1466 -0.4313
    2POPC   C1G   74   6.247   4.584   1.113 -0.1114  0.1737  0.1531
    2POPC   C1H   75   6.177   4.682   1.207 -0.1645  0.0773  0.2141
    2POPC   C1I   76   0.010   4.790   1.250  0.2016 -0.0437 -0.3330
    2POPC   C1J   77   6.247   4.918   1.267  0.2992 -0.0843  0.1481
    2POPC   C1K   78   6.107   4.977   1.247  0.2796 -0.1257  0.1622
    2POPC   C1L   79   6.109   5.070   1.125  0.2081  0.2799  0.4677
    2POPC   C1M   80   5.976   5.138   1.091  0.1993 -0.1683 -0.4393
    2POPC   C1N   81   6.014   5.260   1.006  0.0978  0.0920 -0.1136
    2POPC   C1O   82   6.103   5.236   0.884 -0.0377 -0.4231 -0.1157
    2POPC   C1P   83   6.138   5.371   0.821  0.0255 -0.2503  0.2844
    2POPC   C1Q   84   6.232   5.356   0.701 -0.2403  0.3045  0.0021
    2POPC   C1R   85   6.239   5.482   0.615 -0.3999  0.2120 -0.1456
    2POPC    CE   86   5.900   3.849   0.580 -0.5068  0.2685  0.0714
    2POPC    OG   87   5.764   3.820   0.548 -0.4155 -0.0080 -0.0668
    2POPC   C2A   88   5.728   3.694   0.524  0.0918 -0.1879  0.1166
    2POPC    OH   89   5.810   3.621   0.469  0.2518  0.2240 -0.1865
    2POPC   C2B   90   5.582   3.671   0.528  0.0787 -0.0184  0.8959
    2POPC   C2C   91   5.535   3.532   0.572  0.0193 -0.3595 -0.2171
    2POPC   C2D   92   5.387   3.496   0.559  0.1675 -0.7972 -0.7149
    2POPC   C2E   93   5.346   3.353   0.596  0.0201 -0.6024 -0.1155
    2POPC   C2F   94   5.396   3.327   0.739  0.1243  0.0185 -0.0343
    2POPC   C2G   95   5.382   3.175   0.751  0.0799  0.0035 -0.2735
    2POPC   C2H   96   5.401   3.143   0.899  0.0085 -0.0435 -0.2743
    2POPC   C2I   97   5.282   3.199   0.978  0.1776 -0.4371  0.2693
    2POPC   C2J   98   5.292   3.185   1.130  0.0327 -0.0415  0.3152
    2POPC   C2K   99   5.177   3.257   1.201 -0.5767 -0.7671  0.0772
    2POPC   C2L  100   5.201   3.265   1.352 -0.1925  0.0386 -0.0192
    2POPC   C2M  101   5.091   3.358   1.404  0.0339  0.2681  0.0471
    2POPC   C2N  102   5.062   3.340   1.553 -0.0712  0.3700  0.0390
    2POPC   C2O  103   5.006   3.199   1.577  0.0209  0.3420  0.0931
    2POPC   C2P  104   4.942   3.204   1.716 -0.2813 -0.9035  0.0071
    3POPC   CN1  105   3.443   3.424   0.556 -0.3912  0.8566  0.4702
    3POPC   CN2  106   3.216   3.405   0.503  0.1131 -0.5565 -0.5416
    3POPC   CN3  107   3.368   3.217   0.481  0.6157  0.6219  0.1836
    3POPC   NTM  108   3.350   3.362   0.461  0.5609  0.5542 -0.2795
    3POPC    CA  109   3.365   3.399   0.320 -0.2466 -0.2996 -0.6074
    3POPC    CB  110   3.499   3.356   0.261  0.2128  0.4872 -0.1660
    3POPC    OA  111   3.619   3.401   0.326  0.3314  0.1738 -0.1633
    3POPC     P  112   3.755   3.331   0.277  0.2466 -0.0918 -0.0262
    3POPC    OB  113   3.866   3.411   0.335  0.4322 -0.0569 -0.4189
    3POPC    OC  114   3.752   3.283   0.137 -0.2224 -0.8853  0.2498
    3POPC    OD  115   3.730   3.194   0.357  0.5214 -0.1836 -0.0967
    3POPC    CC  116   3.750   3.207   0.498  0.2364 -0.6427 -0.0134
    3POPC    CD  117   3.719   3.079   0.577 -0.0233 -0.2739  0.4818
    3POPC    OE  118   3.720   3.095   0.719 -0.5614  0.2199  0.4350
    3POPC   C1A  119   3.630   3.162   0.791 -0.5815  0.0486  0.5708
    3POPC    OF  120   3.529   3.198   0.731 -0.2459 -0.7195 -0.4823
    3POPC   C1B  121   3.662   3.191   0.932 -0.2694  0.6073  0.3886
    3POPC   C1C  122   3.541   3.179   1.026 -0.6946 -0.3594 -0.2720
    3POPC   C1D  123   3.570   3.235   1.165 -0.5629  0.0623 -0.4680
    3POPC   C1E  124   3.595   3.386   1.162 -0.4853  0.0545 -0.2576
    3POPC   C1F  125   3.621   3.435   1.304  0.2945 -0.2982 -0.2742
    3POPC   C1G  126   3.693   3.570   1.310 -0.3190  0.0120  0.2278
    3POPC   C1H  127   3.765   3.585   1.444 -0.2367 -0.4671  0.2383
    3POPC   C1I  128   3.863   3.702   1.447 -0.1215 -0.5708  0.6329
    3POPC   C1J  129   3.966   3.682   1.529  0.5054 -0.2957 -0.0683
    3POPC   C1K  130   3.975   3.542   1.590 -0.2890 -0.3512 -0.0674
    3POPC   C1L  131   4.118   3.494   1.616 -0.2885 -0.3025  0.0179
    3POPC   C1M  132   4.182   3.570   1.732 -0.0404  0.3102 -0.5122
    3POPC   C1N  133   4.115   3.548   1.868 -0.2211  0.6062 -0.5523
    3POPC   C1O  134   4.190   3.628   1.974  0.0174 -0.9817  0.5230
    3POPC   C1P  135   4.107   3.640   2.102 -0.3731  0.0573  0.1914
    3POPC   C1Q  136   4.186   3.699   2.220 -0.2963 -0.5835  0.4699
    3POPC   C1R  137   4.094   3.722   2.341  0.3577 -0.1654  0.8898
    3POPC    CE  138   3.818   2.968   0.541  0.1392  0.2150 -0.6392
    3POPC    OG  139   3.786   2.834   0.578  0.0758  0.2645 -0.5100
    3POPC   C2A  140   3.886   2.750   0.606 -0.2083  0.0815 -0.0397
    3POPC    OH  141   4.003   2.783   0.592 -0.1179 -0.3138 -0.2342
    3POPC   C2B  142   3.830   2.620   0.650  0.1348 -0.0127  0.1206
    3POPC   C2C  143   3.883   2.526   0.542 -0.1936 -0.0766  0.0142
    3POPC   C2D  144   3.820   2.388   0.559 -0.0686 -0.2254 -0.6719
    3POPC   C2E  145   3.869   2.316   0.685  0.0609  0.8185 -0.1168
    3POPC   C2F  146   3.801   2.180   0.669  0.6021  0.5022  0.2188
    3POPC   C2G  147   3.837   2.097   0.792 -0.4265 -0.3981 -0.0693
    3POPC   C2H  148   3.791   1.951   0.788 -0.0537 -0.5238  0.1224
    3POPC   C2I  149   3.848   1.877   0.667  0.1429  0.2100 -0.2443
    3POPC   C2J  150   3.752   1.762   0.634  0.1956  0.1700 -0.2587
    3POPC   C2K  151   3.732   1.654   0.741 -0.0064  0.1949 -0.2710
    3POPC   C2L  152   3.634   1.543   0.704 -0.5267  0.4695  0.2633
    3POPC   C2M  153   3.584   1.469   0.827 -0.2666  0.3416  0.2912
    3POPC   C2N  154   3.522   1.333   0.794  0.3949  0.0526  0.2215
    3POPC   C2O  155   3.486   1.280   0.933 -0.2446 -0.1502 -0.0175
    3POPC   C2P  156   3.363   1.352   0.988 -0.0396  0.1096  0.1040
    4POPC   CN1  157   4.225   3.251   3.886  0.0159  0.0409  0.4663
    4POPC   CN2  158   4.134   3.034   3.857  0.0665  0.6180  0.7297
    4POPC   CN3  159   4.014   3.219   3.759 -0.6466 -0.5643 -0.1151
    4POPC   NTM  160   4.099   3.176   3.871 -0.2763  0.6026  0.0664
    4POPC    CA  161   4.016   3.189   0.003  0.2938  0.0409  0.5242
    4POPC    CB  162   4.072   3.196   0.146  0.4373  0.7116  0.4383
    4POPC    OA  163   4.185   3.113   0.171 -0.2918 -0.7538 -0.8809
    4POPC     P  164   4.166   2.981   0.261 -0.1561 -0.1127  0.1073
    4POPC    OB  165   4.301   2.922   0.279 -0.1691 -0.1821 -0.0229
    4POPC    OC  166   4.056   2.914   0.188 -0.1161  0.3291 -0.3660
    4POPC    OD  167   4.114   3.053   0.395 -0.2932 -0.2256  0.1146
    4POPC    CC  168   4.213   3.106   0.483 -0.1118  0.1411 -0.3055
    4POPC    CD  169   4.223   3.258   0.494 -0.2831  0.1032  0.4093
    4POPC    OE  170   4.325   3.300   0.586  0.3513 -0.5841  0.0319
    4POPC   C1A  171   4.378   3.421   0.571 -0.2350 -0.2314  0.7379
    4POPC    OF  172   4.351   3.482   0.468 -0.5058 -0.3985  0.7091
    4POPC   C1B  173   4.481   3.466   0.667  0.2600  0.6971 -0.2140
    4POPC   C1C  174   4.431   3.496   0.808 -0.3120 -0.3132 -0.1984
    4POPC   C1D  175   4.553   3.542   0.887 -0.5198 -0.3276  0.1362
    4POPC   C1E  176   4.583   3.687   0.850  0.3839 -0.6755 -0.5519
    4POPC   C1F  177   4.708   3.735   0.926 -0.0485  0.1685 -0.3578
    4POPC   C1G  178   4.712   3.885   0.953 -0.1568  0.0225  0.4827
    4POPC   C1H  179   4.635   3.938   1.074 -0.2160  0.8886  0.0737
    4POPC   C1I  180   4.672   4.084   1.099 -0.1532  0.8952 -0.0587
    4POPC   C1J  181   4.766   4.110   1.190  0.4259  0.0412 -0.3964
    4POPC   C1K  182   4.843   4.014   1.281 -0.2555 -0.0002  0.1486
    4POPC   C1L  183   4.942   4.090   1.370 -0.0067  0.8787 -0.8536
    4POPC   C1M  184   5.058   4.121   1.274  0.5602  0.0811 -0.4402
    4POPC   C1N  185   5.152   4.215   1.349 -0.0112  0.5147 -0.2538
    4POPC   C1O  186   5.086   4.351   1.373  0.1165  0.3808  0.8972
    4POPC   C1P  187   5.188   4.463   1.394  0.0164  0.5578  0.4581
    4POPC   C1Q  188   5.279   4.493   1.275 -0.2345 -0.0385  0.1152
    4POPC   C1R  189   5.383   4.601   1.305  0.1115 -0.3343 -0.0018
    4POPC    CE  190   4.084   3.310   0.531 -0.1688  0.4206  0.3962
    4POPC    OG  191   4.026   3.254   0.649 -0.2498  0.2836  0.2919
    4POPC   C2A  192   4.055   3.318   0.762 -0.3302 -0.0966  0.5311
    4POPC    OH  193   4.076   3.438   0.742  0.2760 -0.3288 -0.3105
    4POPC   C2B  194   4.014   3.251   0.887 -0.3626  0.6566  0.9284
    4POPC   C2C  195   4.130   3.194   0.968  0.0481  0.3511  0.1324
    4POPC   C2D  196   4.079   3.151   1.106  0.0693 -0.0368  0.0214
    4POPC   C2E  197   4.008   3.253   1.195  0.2928  0.0254  0.1280
    4POPC   C2F  198   3.980   3.188   1.331 -0.1244 -0.2951 -0.1106
    4POPC   C2G  199   3.893   3.063   1.319  0.2392 -0.5639  0.0128
    4POPC   C2H  200   3.853   3.008   1.456 -0.4976 -0.8399 -0.3087
    4POPC   C2I  201   3.752   3.104   1.519  0.3996 -0.2279  0.2176
    4POPC   C2J  202   3.692   3.059   1.653  0.0872  0.3209  0.2632
    4POPC   C2K  203   3.576   2.962   1.634 -0.0523  0.4624  0.3914
    4POPC   C2L  204   3.454   3.033   1.575  0.0804 -0.0990 -0.5662
    4POPC   C2M  205   3.332   2.941   1.560  0.2133 -0.3653 -0.0330
    4POPC   C2N  206   3.203   3.013   1.520  0.7302  0.4921 -0.1935
    4POPC   C2O  207   3.213   3.060   1.374  0.3136 -0.0083 -0.3872
    4POPC   C2P  208   3.102   3.159   1.337  0.3919  0.4210  0.4900
    5POPC   CN1  209   5.715   2.364   0.846 -0.5603 -0.4932  0.3210
    5POPC   CN2  210   5.508   2.332   0.740 -0.0740  0.5481  0.1797
    5POPC   CN3  211   5.686   2.196   0.696 -0.1142 -0.2425 -0.4501
    5POPC   NTM  212   5.653   2.338   0.716 -0.0582 -0.2971  0.0380
    5POPC    CA  213   5.709   2.420   0.608 -0.0822  0.4500  0.5839
    5POPC    CB  214   5.700   2.572   0.620  0.1362  0.5186 -0.0679
    5POPC    OA  215   5.567   2.621   0.638 -0.1077 -0.1012 -0.1685
    5POPC     P  216   5.558   2.776   0.682  0.0707 -0.0501 -0.3113
    5POPC    OB  217   5.426   2.838   0.660  0.0904  0.1418  0.0999
    5POPC    OC  218   5.675   2.839   0.617  0.3530 -0.4276 -0.1725
    5POPC    OD  219   5.585   2.750   0.839 -0.5377 -0.2026 -0.2274
    5POPC    CC  220   5.468   2.718   0.914  0.0730 -0.6498  0.5464
    5POPC    CD  221   5.502   2.651   1.048  0.1192 -0.2648  0.7284
    5POPC    OE  222   5.392   2.580   1.106 -0.2017 -0.2081  0.2009
    5POPC   C1A  223   5.370   2.452   1.078 -0.2254 -0.0534 -0.5175
    5POPC    OF  224   5.449   2.385   1.012  0.5572  0.4024 -0.0573
    5POPC   C1B  225   5.242   2.408   1.138  0.0302 -0.6497 -0.4038
    5POPC   C1C  226   5.157   2.337   1.032 -0.2372 -0.1770 -0.5087
    5POPC   C1D  227   5.045   2.277   1.117 -0.2992  0.1568 -0.3514
    5POPC   C1E  228   4.939   2.225   1.020 -0.3168  0.1571 -0.3317
    5POPC   C1F  229   4.823   2.153   1.090 -0.0565 -0.3258 -0.3923
    5POPC   C1G  230   4.717   2.082   1.006 -0.3302 -0.2578 -0.1064
    5POPC   C1H  231   4.757   1.945   0.950  0.2723 -0.1302  0.0100
    5POPC   C1I  232   4.636   1.867   0.899  0.2858  0.3193 -0.7167
    5POPC   C1J  233   4.566   1.785   0.976 -0.2205  0.5730 -0.8994
    5POPC   C1K  234   4.601   1.739   1.118 -0.5523 -0.3719 -1.1181
    5POPC   C1L  235   4.490   1.768   1.219  0.2862 -0.5147 -0.1390
    5POPC   C1M  236   4.536   1.725   1.358  0.4958 -0.1736 -0.1018
    5POPC   C1N  237   4.515   1.573   1.361 -0.0133 -0.1014  0.0400
    5POPC   C1O  238   4.541   1.504   1.495 -0.2357  0.0226  0.1492
    5POPC   C1P  239   4.439   1.537   1.604  0.2146  0.0426  0.5701
    5POPC   C1Q  240   4.447   1.429   1.712 -0.2425 -0.1682  0.3961
    5POPC   C1R  241   4.389   1.292   1.676 -0.4442  0.1008 -0.3277
    5POPC    CE  242   5.573   2.758   1.131  0.6163  0.1301 -0.1853
    5POPC    OG  243   5.487   2.847   1.202  0.8053  0.1213  0.0582
    5POPC   C2A  244   5.530   2.879   1.324  0.2873  0.5476  0.1317
    5POPC    OH  245   5.635   2.841   1.376 -0.1657  0.0182  0.6799
    5POPC   C2B  246   5.423   2.950   1.397  0.1680  0.4636  0.0399
    5POPC   C2C  247   5.350   2.850   1.487 -0.1703  0.3297 -0.3805
    5POPC   C2D  248   5.330   2.894   1.632  0.8161  0.2163 -0.2004
    5POPC   C2E  249   5.255   2.776   1.695  0.6336  0.3051 -0.2497
    5POPC   C2F  250   5.343   2.657   1.734  0.2000  0.1312  0.2120
    5POPC   C2G  251   5.269   2.533   1.785 -0.0906  0.2922  0.1769
    5POPC   C2H  252   5.365   2.416   1.805 -0.1896  0.1656 -0.0874
    5POPC   C2I  253   5.284   2.287   1.817  0.2343 -0.0730  0.2054
    5POPC   C2J  254   5.375   2.166   1.842 -0.3137 -0.6637 -0.6033
    5POPC   C2K  255   5.299   2.035   1.865  0.3354 -0.8405  0.6147
    5POPC   C2L  256   5.212   2.049   1.991 -0.6722 -0.1257 -0.1427
    5POPC   C2M  257   5.132   1.923   2.024  0.0327 -0.5181  0.0978
    5POPC   C2N  258   5.022   1.886   1.923  0.1184 -0.0404 -0.1728
    5POPC   C2O  259   4.891   1.961   1.944  0.2944  0.0987  0.4589
    5POPC   C2P  260   4.787   1.899   1.851  0.4966 -0.0736  0.3473
    6POPC   CN1  261   5.972   3.710   0.217  0.1545  0.4227 -0.5803
    6POPC   CN2  262   5.882   3.672   0.002 -0.4070  0.3710 -0.1773
    6POPC   CN3  263   5.808   3.534   0.188  0.3099  0.4551  0.0548
    6POPC   NTM  264   5.921   3.606   0.127  0.1800  0.2661 -0.4144
    6POPC    CA  265   6.019   3.509   0.078 -0.3787 -0.3595 -0.3078
    6POPC    CB  266   6.081   3.400   0.166 -0.0221  0.2484  0.1987
    6POPC    OA  267   5.988   3.306   0.220 -0.3588  0.5393  0.1308
    6POPC     P  268   6.050   3.174   0.289 -0.2365  0.2628 -0.4991
    6POPC    OB  269   6.197   3.180   0.269 -0.1608 -0.1038 -0.0621
    6POPC    OC  270   5.963   3.062   0.247 -1.0084  0.8959 -0.6025
    6POPC    OD  271   6.018   3.226   0.438  0.1988 -0.3118 -0.1987
    6POPC    CC  272   6.129   3.281   0.507  0.0939 -0.0520 -0.2352
    6POPC    CD  273   6.120   3.432   0.534 -0.1413 -0.1841  0.4604
    6POPC    OE  274   6.246   3.480   0.580 -0.0998  0.3291 -0.1682
    6POPC   C1A  275   6.261   3.610   0.604 -0.0225  0.2911 -0.0065
    6POPC    OF  276   6.209   3.685   0.521 -0.3781 -0.1511 -0.1918
    6POPC   C1B  277   0.106   3.650   0.691  0.3125  0.1900 -0.3923
    6POPC   C1C  278   0.087   3.595   0.832  0.3367  0.1143 -0.4182
    6POPC   C1D  279   6.233   3.663   0.895  0.7246  0.4972 -0.0698
    6POPC   C1E  280   6.201   3.619   1.038 -0.2153  0.0346 -0.4100
    6POPC   C1F  281   6.069   3.684   1.080 -0.1683 -0.0009 -0.2097
    6POPC   C1G  282   6.061   3.649   1.229  0.0046 -0.3081 -0.2714
    6POPC   C1H  283   5.929   3.688   1.296  0.2904  0.1936  0.0094
    6POPC   C1I  284   5.932   3.646   1.443  0.0507 -0.4745 -0.1696
    6POPC   C1J  285   5.821   3.653   1.516  0.0999  0.4707 -0.1687
    6POPC   C1K  286   5.686   3.707   1.466 -0.0183  0.0787 -0.2835
    6POPC   C1L  287   5.623   3.812   1.558  0.2315  0.5506 -0.6458
    6POPC   C1M  288   5.485   3.859   1.512 -0.1360  0.1160 -0.0125
    6POPC   C1N  289   5.438   3.981   1.592 -0.4786 -0.1521  0.1994
    6POPC   C1O  290   5.509   4.115   1.572 -0.6108 -0.1233 -0.0820
    6POPC   C1P  291   5.480   4.212   1.687 -0.1475 -0.3023  0.1894
    6POPC   C1Q  292   5.532   4.356   1.673 -0.0707 -0.3592 -0.1194
    6POPC   C1R  293   5.677   4.375   1.719  0.0194  0.1216 -0.5963
    6POPC    CE  294   5.994   3.451   0.619 -0.8226 -0.0349 -0.5493
    6POPC    OG  295   5.987   3.376   0.741 -0.3852  0.0552 -0.4655
    6POPC   C2A  296   5.868   3.385   0.801  0.0100 -0.0645  0.3491
    6POPC    OH  297   5.781   3.456   0.751 -0.2243 -0.1603  0.6240
    6POPC   C2B  298   5.862   3.318   0.933  0.7108  0.1642  0.5030
    6POPC   C2C  299   5.761   3.203   0.941  0.1327  0.6449  0.1645
    6POPC   C2D  300   5.744   3.175   1.090  0.0556 -0.4871 -0.0459
    6POPC   C2E  301   5.683   3.292   1.167 -0.1024 -0.6040  0.0072
    6POPC   C2F  302   5.660   3.236   1.308 -0.6325 -0.2590  0.0604
    6POPC   C2G  303   5.622   3.338   1.415  0.3882 -0.0622  0.2450
    6POPC   C2H  304   5.546   3.286   1.537  0.0790  0.3110  0.2125
    6POPC   C2I  305   5.500   3.400   1.629  0.5902  0.3773  0.3847
    6POPC   C2J  306   5.422   3.363   1.755 -0.2069  0.1473 -0.1715
    6POPC   C2K  307   5.366   3.479   1.838 -0.2099  0.0841 -0.0845
    6POPC   C2L  308   5.268   3.417   1.936  0.0698  0.0014  0.1445
    6POPC   C2M  309   5.182   3.525   2.002 -0.0868 -0.2084  0.2873
    6POPC   C2N  310   5.073   3.467   2.092 -0.4108  0.3319  0.2511
    6POPC   C2O  311   4.972   3.386   2.009 -0.2863  0.4808 -0.0476
    6POPC   C2P  312   4.877   3.352   2.124 -0.0845  0.2913  0.0623
    7POPC   CN1  313   5.173   2.602   0.548  0.5408 -0.2817  0.5246
    7POPC   CN2  314   5.216   2.746   0.366 -0.3331 -0.0767  0.5957
    7POPC   CN3  315   5.101   2.539   0.334 -0.1014  0.1856  0.2016
    7POPC   NTM  316   5.211   2.605   0.406 -0.0137 -0.1516  0.3760
    7POPC    CA  317   5.340   2.543   0.372 -0.0253 -0.1382  0.3055
    7POPC    CB  318   5.349   2.390   0.372 -0.4349 -0.1647  0.0386
    7POPC    OA  319   5.302   2.324   0.490 -0.3097 -0.5203 -0.1092
    7POPC     P  320   5.279   2.167   0.465 -0.2550 -0.6366  0.5689
    7POPC    OB  321   5.296   2.111   0.601  0.3897 -0.3584  0.6037
    7POPC    OC  322   5.350   2.109   0.349  0.2050  0.0648  0.4973
    7POPC    OD  323   5.122   2.195   0.440 -0.0922 -0.1083  0.1307
    7POPC    CC  324   5.044   2.206   0.559 -0.0144  0.4927  0.1245
    7POPC    CD  325   4.895   2.196   0.526  0.0023 -0.1952  0.2465
    7POPC    OE  326   4.793   2.246   0.613  0.0172 -0.1850  0.2584
    7POPC   C1A  327   4.788   2.376   0.644  0.5289 -0.1805  0.3244
    7POPC    OF  328   4.820   2.459   0.559  0.2773 -0.2596  0.1531
    7POPC   C1B  329   4.706   2.382   0.767  0.2799 -0.1884  0.1581
    7POPC   C1C  330   4.706   2.526   0.816  0.0939 -0.2119  0.2253
    7POPC   C1D  331   4.626   2.525   0.947  0.1312 -0.0670  0.2503
    7POPC   C1E  332   4.613   2.665   1.007 -0.5190 -0.0256  0.0218
    7POPC   C1F  333   4.515   2.678   1.123 -0.4307  0.6043  0.0270
    7POPC   C1G  334   4.502   2.828   1.153  0.0722  0.6843 -0.1524
    7POPC   C1H  335   4.397   2.857   1.260 -0.4583 -0.0430 -0.4692
    7POPC   C1I  336   4.382   3.009   1.261  0.6231  0.0671 -0.0565
    7POPC   C1J  337   4.346   3.067   1.375  0.0369  0.1029 -0.2541
    7POPC   C1K  338   4.287   2.996   1.497  0.3369 -0.2068 -0.2897
    7POPC   C1L  339   4.238   3.096   1.601  0.3141 -0.3048 -0.2069
    7POPC   C1M  340   4.344   3.181   1.671 -0.0130  0.2024 -0.3252
    7POPC   C1N  341   4.422   3.091   1.767 -0.1708  0.2348 -0.1661
    7POPC   C1O  342   4.518   3.165   1.860 -0.0744  0.2240 -0.2564
    7POPC   C1P  343   4.437   3.188   1.988  0.1199  0.6803 -0.2127
    7POPC   C1Q  344   4.530   3.262   2.084  0.3529 -0.0969  0.1672
    7POPC   C1R  345   4.448   3.313   2.203 -0.2404 -0.3806 -0.1122
    7POPC    CE  346   4.873   2.047   0.501  0.0392 -0.2085  0.2922
    7POPC    OG  347   4.930   1.949   0.588 -0.1988 -0.4474  0.1807
    7POPC   C2A  348   4.951   1.824   0.546  0.1095 -0.1746 -0.4987
    7POPC    OH  349   4.965   1.803   0.426  0.0113  0.0437 -0.5509
    7POPC   C2B  350   4.990   1.732   0.655 -0.6787 -0.5794 -0.5474
    7POPC   C2C  351   4.874   1.655   0.717 -0.3310 -0.5605  0.1282
    7POPC   C2D  352   4.920   1.577   0.841  0.7696 -0.3725 -0.1567
    7POPC   C2E  353   4.830   1.464   0.891  0.1732  0.2148  0.0995
    7POPC   C2F  354   4.872   1.410   1.028  0.1153  0.3391  0.1669
    7POPC   C2G  355   4.781   1.296   1.073  0.1649  0.3317  0.2476
    7POPC   C2H  356   4.830   1.263   1.215  0.4843 -0.6056 -0.0718
    7POPC   C2I  357   4.756   1.152   1.289 -0.5612  0.0475 -0.1147
    7POPC   C2J  358   4.796   1.152   1.436 -0.3645 -0.3792 -0.1660
    7POPC   C2K  359   4.722   1.044   1.516 -0.2976 -0.0070  0.4068
    7POPC   C2L  360   4.752   1.060   1.665 -0.1797  0.3165  0.3499
    7POPC   C2M  361   4.701   0.935   1.738  0.4861 -0.3213 -0.2691
    7POPC   C2N  362   4.740   0.929   1.885  0.3509 -0.2429 -0.2298
    7POPC   C2O  363   4.682   0.798   1.939 -0.0492  0.0404  0.0287
    7POPC   C2P  364   4.737   0.768   2.078  0.3282 -0.2375 -0.1799
    8POPC   CN1  365   1.444   4.539   0.472 -0.1408  1.0768  0.2257
    8POPC   CN2  366   1.262   4.651   0.392  0.5676  0.4347 -0.3706
    8POPC   CN3  367   1.230   4.464   0.547 -0.1050  0.6610 -0.5454
    8POPC   NTM  368   1.305   4.516   0.431  0.2007  0.2722 -0.5233
    8POPC    CA  369   1.295   4.427   0.315 -0.0580  0.1208 -0.3872
    8POPC    CB  370   1.360   4.289   0.327 -0.1493  0.1284  0.2357
    8POPC    OA  371   1.336   4.216   0.447  0.0435  0.3725  0.4218
    8POPC     P  372   1.447   4.101   0.470 -0.1231  0.1517  0.1257
    8POPC    OB  373   1.553   4.188   0.526 -0.1792  0.2154  0.1325
    8POPC    OC  374   1.461   4.038   0.337  0.5758 -0.7574  0.6197
    8POPC    OD  375   1.383   4.006   0.584  0.1664 -0.0161  0.1481
    8POPC    CC  376   1.363   4.081   0.704 -0.6315  0.0101  0.0037
    8POPC    CD  377   1.416   4.018   0.833 -0.0853  0.8789  0.2134
    8POPC    OE  378   1.351   4.059   0.953  0.0524  0.2153  0.5174
    8POPC   C1A  379   1.229   4.009   0.972 -0.1870  0.4580 -0.3569
    8POPC    OF  380   1.188   3.913   0.908  0.4533  0.0247 -0.1245
    8POPC   C1B  381   1.152   4.079   1.078  0.0363  0.5573 -0.2602
    8POPC   C1C  382   1.141   3.986   1.198 -0.5262 -0.2216 -0.9058
    8POPC   C1D  383   1.031   4.038   1.292 -0.1316 -0.1078 -0.5037
    8POPC   C1E  384   1.023   3.946   1.414 -0.1707  0.2050 -0.2686
    8POPC   C1F  385   0.948   4.017   1.526 -0.1067 -0.0004 -0.0959
    8POPC   C1G  386   0.924   3.935   1.653  0.0498  0.0563 -0.0296
    8POPC   C1H  387   1.040   3.944   1.752 -0.0821  0.3742  0.0965
    8POPC   C1I  388   1.153   3.841   1.736 -0.0063  0.4848 -0.0765
    8POPC   C1J  389   1.274   3.847   1.790  0.0502  0.2207 -0.1733
    8POPC   C1K  390   1.331   3.975   1.852 -0.0650  0.3215 -0.2746
    8POPC   C1L  391   1.446   3.949   1.950 -0.3048  0.3321  0.0085
    8POPC   C1M  392   1.511   4.075   2.007  0.5475  0.1308 -0.5127
    8POPC   C1N  393   1.598   4.019   2.119 -0.0163  0.0657 -0.1046
    8POPC   C1O  394   1.655   4.148   2.180  0.1228  0.2231 -0.5667
    8POPC   C1P  395   1.562   4.235   2.264 -0.3718 -0.3796 -0.4830
    8POPC   C1Q  396   1.579   4.218   2.415  0.1041  0.4194 -0.4446
    8POPC   C1R  397   1.459   4.254   2.502 -0.1373  0.3617 -0.7536
    8POPC    CE  398   1.568   4.033   0.824 -0.0488  0.1162 -0.5923
    8POPC    OG  399   1.625   4.163   0.808  0.0696  0.1690  0.2257
    8POPC   C2A  400   1.738   4.164   0.737  0.1809  0.0936  0.4008
    8POPC    OH  401   1.789   4.064   0.686 -0.4287 -0.0471  0.0607
    8POPC   C2B  402   1.798   4.298   0.724 -0.6869  0.4192 -0.3639
    8POPC   C2C  403   1.829   4.371   0.856  0.2399 -0.5895 -0.0072
    8POPC   C2D  404   1.911   4.279   0.946  0.7123 -0.1482  0.0145
    8POPC   C2E  405   1.921   4.344   1.084  0.3721  0.2712 -0.1586
    8POPC   C2F  406   1.991   4.259   1.189 -0.1679  0.1143  0.0789
    8POPC   C2G  407   1.985   4.322   1.329 -0.2841  0.0886  0.0856
    8POPC   C2H  408   2.043   4.464   1.333  0.9281 -0.3792 -0.3695
    8POPC   C2I  409   2.047   4.518   1.477 -0.5395 -0.6925 -0.2010
    8POPC   C2J  410   2.125   4.432   1.576 -0.1923  0.1810  0.2848
    8POPC   C2K  411   2.278   4.432   1.564 -0.1808 -0.7256  0.3416
    8POPC   C2L  412   2.361   4.360   1.671  0.3945 -0.0476  0.3595
    8POPC   C2M  413   2.361   4.207   1.671 -0.1018 -0.0534 -0.2127
    8POPC   C2N  414   2.398   4.158   1.811 -0.4640  0.2203 -0.0197
    8POPC   C2O  415   2.435   4.010   1.821  0.1586  0.4075  0.5584
    8POPC   C2P  416   2.374   3.950   1.948  0.2237 -0.0891  0.3571
    9POPC   CN1  417   1.782   1.102   0.504 -0.3086 -0.1346 -0.0429
    9POPC   CN2  418   1.635   1.142   0.694 -0.6225  0.1028 -0.1313
    9POPC   CN3  419   1.558   1.008   0.529  0.1401 -0.1027  0.0324
    9POPC   NTM  420   1.644   1.126   0.548 -0.2747  0.2289 -0.1259
    9POPC    CA  421   1.594   1.251   0.491  0.0373  0.3855 -0.0584
    9POPC    CB  422   1.549   1.245   0.345 -0.6472  0.6738  0.1330
    9POPC    OA  423   1.433   1.167   0.315 -0.1024 -0.1417  0.1034
    9POPC     P  424   1.312   1.267   0.282  0.2566  0.2876  0.0778
    9POPC    OB  425   1.199   1.188   0.227  0.0756  0.6740 -0.1096
    9POPC    OC  426   1.366   1.385   0.211 -0.0282  0.0343 -0.5681
    9POPC    OD  427   1.272   1.316   0.430  0.0158 -0.1184  0.1477
    9POPC    CC  428   1.188   1.222   0.498 -0.2979 -0.1094 -0.2229
    9POPC    CD  429   1.212   1.218   0.649  0.3269 -0.1562 -0.3207
    9POPC    OE  430   1.161   1.100   0.712  0.6730 -0.2031 -0.1224
    9POPC   C1A  431   1.243   1.016   0.774  0.1494 -0.5559  0.0990
    9POPC    OF  432   1.365   1.020   0.758  0.1013  0.1878 -0.0987
    9POPC   C1B  433   1.178   0.893   0.825 -0.3340 -0.6117 -0.6349
    9POPC   C1C  434   1.028   0.896   0.855 -0.2475 -0.0406 -0.2428
    9POPC   C1D  435   0.993   0.967   0.986  0.0736  0.0106 -0.1834
    9POPC   C1E  436   0.842   0.948   1.007  0.2287 -1.1464 -0.0370
    9POPC   C1F  437   0.797   1.010   1.139 -0.2925 -0.4077 -0.5565
    9POPC   C1G  438   0.648   0.985   1.168 -0.1619 -0.4499  0.1025
    9POPC   C1H  439   0.631   0.839   1.209  0.2597 -0.4917  0.1328
    9POPC   C1I  440   0.499   0.819   1.283 -0.1031  0.6013 -0.2013
    9POPC   C1J  441   0.483   0.773   1.407  0.2103  0.0639 -0.3574
    9POPC   C1K  442   0.603   0.754   1.500 -0.2124 -0.3414  0.1104
    9POPC   C1L  443   0.574   0.758   1.650  0.7980  0.0778  0.3000
    9POPC   C1M  444   0.690   0.704   1.734  0.8657 -0.0978  0.0945
    9POPC   C1N  445   0.680   0.688   1.886 -0.2882  0.3888  0.0791
    9POPC   C1O  446   0.817   0.633   1.928 -0.1930  0.4560 -0.1409
    9POPC   C1P  447   0.919   0.746   1.937  0.2571  0.0437 -0.0727
    9POPC   C1Q  448   1.039   0.684   2.010  0.1691  0.4291  0.4061
    9POPC   C1R  449   1.114   0.592   1.912 -0.4514 -0.0575  0.3873
    9POPC    CE  450   1.134   1.336   0.706  0.1052 -0.1930 -0.5506
    9POPC    OG  451   1.193   1.464   0.682 -0.2194  0.1361  0.3660
    9POPC   C2A  452   1.122   1.539   0.598  0.0886  0.1274  0.0942
    9POPC    OH  453   1.020   1.503   0.540 -0.2576  0.8452  0.2445
    9POPC   C2B  454   1.168   1.679   0.582 -0.1556  0.2234  0.2298
    9POPC   C2C  455   1.292   1.726   0.506  0.1425  0.1866  0.6842
    9POPC   C2D  456   1.423   1.678   0.569  0.8928  0.5919 -0.5370
    9POPC   C2E  457   1.462   1.757   0.694  0.2766  0.4834 -0.2693
    9POPC   C2F  458   1.583   1.698   0.768 -0.3101  0.1388  0.4216
    9POPC   C2G  459   1.562   1.576   0.857 -0.1213 -0.5505 -0.4599
    9POPC   C2H  460   1.488   1.631   0.980  0.2588 -0.2101 -0.3795
    9POPC   C2I  461   1.423   1.508   1.044 -0.0058 -0.0847 -0.4083
    9POPC   C2J  462   1.492   1.378   1.084 -0.2353 -0.1243 -0.1313
    9POPC   C2K  463   1.411   1.252   1.114  0.1640 -0.2811  0.3005
    9POPC   C2L  464   1.319   1.265   1.236 -0.1045  0.0320  0.0681
    9POPC   C2M  465   1.408   1.282   1.360  0.7547  0.6224 -0.6250
    9POPC   C2N  466   1.315   1.328   1.472  0.3931 -0.9233 -0.2760
    9POPC   C2O  467   1.397   1.401   1.579 -0.2579  0.0134 -0.4054
    9POPC   C2P  468   1.431   1.546   1.544 -0.2146  0.1443  0.1654
   10POPC   CN1  469   0.849   5.408   0.635 -0.1602 -0.2940  0.5256
   10POPC   CN2  470   0.684   5.301   0.495 -0.0608 -0.2475  0.3989
   10POPC   CN3  471   0.823   5.175   0.631 -0.2072  0.1480  0.3378
   10POPC   NTM  472   0.822   5.294   0.546  0.0593 -0.0154  0.1025
   10POPC    CA  473   0.914   5.278   0.432 -0.2737 -0.0770 -0.1619
   10POPC    CB  474   0.997   5.396   0.382 -0.4323  0.3234  0.5028
   10POPC    OA  475   0.919   5.504   0.328 -0.0862  0.0546 -0.5585
   10POPC     P  476   1.020   5.613   0.266  0.4384 -0.1825 -0.1300
   10POPC    OB  477   0.933   5.670   0.160  0.1291 -0.3444  0.0325
   10POPC    OC  478   1.152   5.555   0.234  0.2541 -0.5817 -0.1877
   10POPC    OD  479   1.038   5.704   0.397  0.5528 -0.2581 -0.0934
   10POPC    CC  480   0.910   5.763   0.420  0.6327  0.0497 -0.4489
   10POPC    CD  481   0.905   5.883   0.515 -0.4699 -0.2061 -0.1710
   10POPC    OE  482   0.827   5.849   0.630 -0.4147  0.0836 -0.0480
   10POPC   C1A  483   0.875   5.776   0.730 -0.5653  0.0602  0.0086
   10POPC    OF  484   0.984   5.718   0.736 -0.4415  0.2840 -0.0735
   10POPC   C1B  485   0.792   5.784   0.852 -0.3124  0.0114  0.1856
   10POPC   C1C  486   0.856   5.883   0.949  0.0401 -0.2522  0.2249
   10POPC   C1D  487   0.779   5.890   1.081 -0.3165 -0.4257  0.0291
   10POPC   C1E  488   0.789   5.766   1.170  0.2881 -0.0799  0.4572
   10POPC   C1F  489   0.699   5.797   1.290  0.4720  0.3996  0.4739
   10POPC   C1G  490   0.551   5.831   1.270  0.3512 -0.1591  0.3821
   10POPC   C1H  491   0.477   5.888   1.390 -0.5007 -0.4529 -0.0000
   10POPC   C1I  492   0.490   5.802   1.516 -0.6469 -0.0562  0.2911
   10POPC   C1J  493   0.446   5.851   1.631 -0.4556  0.1279  0.2856
   10POPC   C1K  494   0.401   5.998   1.637 -0.0767  0.2465  0.2250
   10POPC   C1L  495   0.397   6.047   1.782 -0.2841  0.3481  0.1842
   10POPC   C1M  496   0.412   6.200   1.784 -0.3589  0.3561  0.1207
   10POPC   C1N  497   0.424   6.274   1.918 -0.6095  0.2806  0.1852
   10POPC   C1O  498   0.433   0.124   1.876  0.3934  0.0247 -0.5423
   10POPC   C1P  499   0.440   0.195   2.011 -0.1094 -0.0810 -0.4563
   10POPC   C1Q  500   0.472   0.342   1.984  0.0126  0.0071  0.1544
   10POPC   C1R  501   0.470   0.431   2.108  0.0768 -0.1440  0.2642
   10POPC    CE  502   0.840   6.002   0.445 -0.1619 -0.0611 -0.2089
   10POPC    OG  503   0.935   6.084   0.375  0.5707 -0.3693  0.4082
   10POPC   C2A  504   0.881   6.173   0.292 -0.0629 -0.5557  0.6113
   10POPC    OH  505   0.793   6.140   0.213  0.0651 -0.5534  0.4668
   10POPC   C2B  506   0.964   6.294   0.276 -0.2033 -0.5576 -0.1557
   10POPC   C2C  507   0.922   0.107   0.374 -0.9557 -0.5110 -0.5278
   10POPC   C2D  508   0.905   0.085   0.524  0.3153 -0.4703 -0.3694
   10POPC   C2E  509   1.038   0.050   0.591  0.2613  0.1530  0.0686
   10POPC   C2F  510   1.025   6.289   0.732 -0.0975 -0.0170 -0.0329
   10POPC   C2G  511   1.160   6.239   0.785  0.0092  0.2519 -0.0488
   10POPC   C2H  512   1.141   6.173   0.922  0.0848 -0.1075 -0.2115
   10POPC   C2I  513   1.277   6.123   0.971  0.1019  0.2692  0.1259
   10POPC   C2J  514   1.285   6.074   1.115 -0.0488 -0.9388 -0.2655
   10POPC   C2K  515   1.407   5.987   1.145  0.5998  0.1116  0.2145
   10POPC   C2L  516   1.413   5.921   1.282  0.0076 -0.0671  0.1586
   10POPC   C2M  517   1.298   5.822   1.302  0.0824 -0.2107 -0.1203
   10POPC   C2N  518   1.319   5.743   1.431  0.4699 -0.0449 -0.0786
   10POPC   C2O  519   1.193   5.659   1.456  0.5783 -0.0164  0.5707
   10POPC   C2P  520   1.083   5.748   1.514  0.1937  0.1346 -0.3753
   11POPC   CN1  521   0.998   3.457   0.088 -0.0492  0.6063 -0.1641
   11POPC   CN2  522   1.053   3.586   3.878  0.5173 -0.2096  0.1868
   11POPC   CN3  523   0.839   3.539   3.921  0.0093 -0.2100 -0.0197
   11POPC   NTM  524   0.972   3.477   3.933  0.0750 -0.1255 -0.2892
   11POPC    CA  525   0.993   3.360   3.846  0.0471  0.1965 -0.7305
   11POPC    CB  526   0.913   3.232   3.869  0.1802  0.1543 -0.4949
   11POPC    OA  527   0.771   3.239   3.876  0.1880  0.1895 -0.3757
   11POPC     P  528   0.699   3.169   0.014 -0.1378  0.1152 -0.6001
   11POPC    OB  529   0.751   3.030   0.009 -0.0144  0.1054  0.6315
   11POPC    OC  530   0.557   3.209   0.019 -0.0010  0.4755  0.5109
   11POPC    OD  531   0.775   3.248   0.131 -0.2016 -0.2560 -0.3065
   11POPC    CC  532   0.710   3.201   0.250  0.3143 -0.1779  0.0097
   11POPC    CD  533   0.774   3.083   0.324  0.0147 -0.3926 -0.0728
   11POPC    OE  534   0.718   3.052   0.452  0.0983  0.3044  0.1364
   11POPC   C1A  535   0.599   2.994   0.460  0.0567  0.3135 -0.3951
   11POPC    OF  536   0.528   2.973   0.362  0.3452 -0.3696 -0.4615
   11POPC   C1B  537   0.559   2.983   0.602  0.4991  0.3205 -0.2702
   11POPC   C1C  538   0.663   2.963   0.713 -0.1276 -0.1806  0.2376
   11POPC   C1D  539   0.618   2.983   0.858 -0.5510  0.2605  0.0444
   11POPC   C1E  540   0.715   2.936   0.966 -0.2126  0.3859 -0.2022
   11POPC   C1F  541   0.786   3.053   1.034 -0.0413  0.6742 -0.8630
   11POPC   C1G  542   0.892   3.009   1.136 -0.6748  0.6450 -0.2054
   11POPC   C1H  543   0.956   3.134   1.196  0.0959  0.2501 -0.1913
   11POPC   C1I  544   0.860   3.218   1.281  0.0450 -0.9536  0.9780
   11POPC   C1J  545   0.913   3.319   1.350  0.2146 -0.3999  0.0464
   11POPC   C1K  546   1.057   3.361   1.319 -0.0613  0.4817 -0.0851
   11POPC   C1L  547   1.125   3.431   1.436  0.0604  0.4792 -0.1541
   11POPC   C1M  548   1.277   3.436   1.413  0.0767 -0.2770 -0.2583
   11POPC   C1N  549   1.336   3.535   1.514  0.3162 -0.4896 -0.1917
   11POPC   C1O  550   1.488   3.520   1.528  0.4023 -0.1286 -0.6809
   11POPC   C1P  551   1.546   3.611   1.636 -0.1126 -0.0388 -0.4744
   11POPC   C1Q  552   1.698   3.603   1.620  0.0001 -0.2908  0.6473
   11POPC   C1R  553   1.765   3.718   1.695 -0.0118 -0.1993  0.5158
   11POPC    CE  554   0.923   3.113   0.338 -0.0817  0.0154  0.1186
   11POPC    OG  555   0.971   3.210   0.432 -0.1169 -0.3498  0.5162
   11POPC   C2A  556   1.007   3.161   0.550 -0.0989 -0.4015  0.4892
   11POPC    OH  557   1.085   3.066   0.554  0.0416 -0.3120 -0.1478
   11POPC   C2B  558   1.014   3.268   0.652 -0.0469 -0.1446  0.2148
   11POPC   C2C  559   1.127   3.267   0.755  0.0790 -0.1301  0.0785
   11POPC   C2D  560   1.105   3.381   0.855  0.0993  0.2845 -0.3879
   11POPC   C2E  561   1.244   3.402   0.914 -0.0677 -0.1636  0.1796
   11POPC   C2F  562   1.258   3.538   0.983  0.0325 -0.2514  0.3344
   11POPC   C2G  563   1.391   3.549   1.058  0.0459 -0.2914  0.3166
   11POPC   C2H  564   1.415   3.699   1.081  0.6192 -0.2700 -0.4258
   11POPC   C2I  565   1.538   3.715   1.170 -0.1595 -0.2836  0.6680
   11POPC   C2J  566   1.515   3.842   1.253 -0.1366  0.4235 -0.3913
   11POPC   C2K  567   1.655   3.902   1.267 -0.2331  0.6172 -0.2552
   11POPC   C2L  568   1.668   4.046   1.317  1.0167  0.5786 -0.4340
   11POPC   C2M  569   1.598   4.061   1.453  0.1858 -0.1131 -0.7743
   11POPC   C2N  570   1.604   4.200   1.518 -0.1586 -0.4249 -0.0777
   11POPC   C2O  571   1.503   4.207   1.633  0.4157 -0.4385  0.4350
   11POPC   C2P  572   1.366   4.259   1.588  0.5766 -0.2236  0.1892
   12POPC   CN1  573   0.050   1.209   0.487  0.3791  0.1985  0.5095
   12POPC   CN2  574   0.199   1.255   0.667 -0.1839  0.1798  0.1954
   12POPC   CN3  575   0.062   1.429   0.571 -0.3505  0.3510 -0.0030
   12POPC   NTM  576   0.142   1.309   0.543  0.1125  0.5987  0.2388
   12POPC    CA  577   0.240   1.339   0.438  0.3125 -0.0779  0.2255
   12POPC    CB  578   0.357   1.429   0.478  0.5866 -0.0659 -0.5854
   12POPC    OA  579   0.317   1.559   0.521  0.4578 -0.0881 -0.6357
   12POPC     P  580   0.448   1.646   0.556  0.1583  0.1520 -0.0998
   12POPC    OB  581   0.535   1.633   0.437 -0.2940 -0.1017 -0.4020
   12POPC    OC  582   0.481   1.583   0.686  0.6289  0.2853 -0.1537
   12POPC    OD  583   0.383   1.790   0.589 -0.1167  0.0179 -0.0551
   12POPC    CC  584   0.295   1.775   0.700 -0.0326 -0.4148 -0.0464
   12POPC    CD  585   0.190   1.886   0.710  0.3210 -0.0790 -0.0489
   12POPC    OE  586   0.085   1.896   0.614  0.3128  0.5355  0.0242
   12POPC   C1A  587   6.249   1.816   0.636  0.7424 -0.0653 -0.1320
   12POPC    OF  588   6.262   1.696   0.661 -0.0727 -0.2823 -0.6799
   12POPC   C1B  589   6.123   1.867   0.577  0.4565 -0.2394  0.3259
   12POPC   C1C  590   6.063   1.958   0.685 -0.3386 -0.2228 -0.1195
   12POPC   C1D  591   5.965   1.877   0.770 -0.8142 -0.0412 -0.4898
   12POPC   C1E  592   5.942   1.919   0.915  0.4448 -0.1870 -0.2341
   12POPC   C1F  593   5.895   1.789   0.981 -0.4253  0.2117 -0.0569
   12POPC   C1G  594   5.872   1.804   1.131 -0.0353 -0.0348  0.0272
   12POPC   C1H  595   5.826   1.676   1.201 -0.2946  0.1502  0.1994
   12POPC   C1I  596   5.834   1.687   1.353 -0.1586  0.4103  0.1751
   12POPC   C1J  597   5.725   1.682   1.430 -0.2727  0.3500  0.0102
   12POPC   C1K  598   5.580   1.683   1.383 -0.2169 -0.0925 -0.1769
   12POPC   C1L  599   5.505   1.577   1.463 -0.4867  0.2707  0.0521
   12POPC   C1M  600   5.455   1.636   1.595 -0.5787  0.4488 -0.0621
   12POPC   C1N  601   5.376   1.528   1.670 -0.9254  0.3925 -0.5048
   12POPC   C1O  602   5.312   1.604   1.786 -0.0797 -0.1418  0.3263
   12POPC   C1P  603   5.264   1.496   1.883 -0.6040  0.0612  0.2955
   12POPC   C1Q  604   5.206   1.572   2.003  0.0981  0.2927  0.4969
   12POPC   C1R  605   5.161   1.468   2.107 -0.4556  0.0257 -0.0043
   12POPC    CE  606   0.270   2.016   0.714 -0.3458  0.3363 -0.1296
   12POPC    OG  607   0.326   2.050   0.841 -0.6824  0.2651  0.0374
   12POPC   C2A  608   0.377   2.172   0.840 -0.2628  0.0890 -0.1156
   12POPC    OH  609   0.342   2.258   0.760  0.1172  0.3295 -0.0301
   12POPC   C2B  610   0.429   2.209   0.974  0.2926  0.5691 -0.4552
   12POPC   C2C  611   0.325   2.217   1.087  0.5409  0.2508 -0.2009
   12POPC   C2D  612   0.391   2.266   1.215  0.4160  0.0357 -0.0535
   12POPC   C2E  613   0.295   2.244   1.332  0.7601 -0.0664  0.2136
   12POPC   C2F  614   0.315   2.096   1.366 -0.1145 -0.1844  0.2417
   12POPC   C2G  615   0.248   2.052   1.497 -0.3041 -0.2131  0.1353
   12POPC   C2H  616   0.357   2.063   1.604  0.3402  0.4077 -0.5709
   12POPC   C2I  617   0.334   1.953   1.708  0.9318  0.3662 -0.4812
   12POPC   C2J  618   0.437   1.930   1.818  0.1563 -0.5111  0.0784
   12POPC   C2K  619   0.575   1.895   1.761  0.2630 -0.1010  0.0792
   12POPC   C2L  620   0.681   1.868   1.867  1.0030 -0.2002 -0.6761
   12POPC   C2M  621   0.665   1.719   1.899  0.5772 -0.1379 -0.5972
   12POPC   C2N  622   0.771   1.682   2.002  0.1979  0.2756 -0.0539
   12POPC   C2O  623   0.823   1.543   1.965 -0.8101 -0.2592  0.5027
   12POPC   C2P  624   0.947   1.501   2.043 -0.0376  0.2846 -0.4236
   13POPC   CN1  625   1.602   2.220   0.486  0.4483 -0.2617  0.2024
   13POPC   CN2  626   1.575   1.989   0.431  0.0035 -0.1529 -0.2559
   13POPC   CN3  627   1.766   2.117   0.344  0.1782  0.2854 -0.0538
   13POPC   NTM  628   1.624   2.119   0.382  0.1898 -0.1187  0.0114
   13POPC    CA  629   1.558   2.165   0.258  0.3081 -0.1563 -0.0651
   13POPC    CB  630   1.537   2.076   0.136  0.0985  0.3380 -0.3934
   13POPC    OA  631   1.470   1.951   0.153  0.0203  0.4039 -0.2181
   13POPC     P  632   1.311   1.973   0.152 -0.0743 -0.2243  0.1930
   13POPC    OB  633   1.234   1.849   0.125 -0.1111 -0.1611  0.0012
   13POPC    OC  634   1.286   2.088   0.062  0.0382 -0.1048  0.3162
   13POPC    OD  635   1.285   2.033   0.299 -0.0389 -0.4393  0.2882
   13POPC    CC  636   1.153   2.086   0.301  0.2157  0.2372 -0.1606
   13POPC    CD  637   1.089   2.068   0.439  0.1702  0.3705 -0.1640
   13POPC    OE  638   0.947   2.054   0.448  0.1951  0.1200 -0.1571
   13POPC   C1A  639   0.895   1.934   0.423  0.3260 -0.0434  0.3480
   13POPC    OF  640   0.950   1.856   0.346  0.2853  0.0179  0.2565
   13POPC   C1B  641   0.758   1.906   0.472  0.1276  0.1822 -0.0727
   13POPC   C1C  642   0.744   1.913   0.624  0.3898  0.1891 -0.0482
   13POPC   C1D  643   0.825   1.804   0.694 -0.0684 -0.0419  0.1283
   13POPC   C1E  644   0.793   1.817   0.843  0.2819 -0.3584  0.2321
   13POPC   C1F  645   0.650   1.781   0.884  0.2560 -0.1888  0.2928
   13POPC   C1G  646   0.643   1.779   1.037  0.2159 -0.0641  0.2922
   13POPC   C1H  647   0.496   1.772   1.080  0.2153 -0.1649  0.2738
   13POPC   C1I  648   0.476   1.816   1.225  0.1426 -0.0784  0.2374
   13POPC   C1J  649   0.482   1.724   1.321 -0.2255 -0.0234  0.3155
   13POPC   C1K  650   0.494   1.576   1.285  0.5001  0.1247 -0.0791
   13POPC   C1L  651   0.428   1.480   1.384  0.1649  0.4620  0.0312
   13POPC   C1M  652   0.508   1.474   1.515 -0.1198 -0.2258  0.1801
   13POPC   C1N  653   0.650   1.418   1.508  0.0039  0.1213 -0.1307
   13POPC   C1O  654   0.649   1.266   1.491  0.2430  0.1908 -0.7743
   13POPC   C1P  655   0.776   1.209   1.554 -0.2809 -0.4384 -0.2647
   13POPC   C1Q  656   0.792   1.207   1.706 -0.2258 -0.1625 -0.2663
   13POPC   C1R  657   0.932   1.181   1.762 -0.0660 -0.5214 -0.8257
   13POPC    CE  658   1.170   2.160   0.532  0.5762 -0.0547 -0.0950
   13POPC    OG  659   1.163   2.137   0.673  0.8736 -0.2803 -0.1166
   13POPC   C2A  660   1.273   2.099   0.738  0.7452  0.2115  0.3922
   13POPC    OH  661   1.382   2.082   0.684  0.5821 -0.2594  0.2066
   13POPC   C2B  662   1.253   2.088   0.884 -0.2001  0.1226  0.2659
   13POPC   C2C  663   1.208   1.953   0.941 -0.1317  0.1000  0.2665
   13POPC   C2D  664   1.176   1.967   1.090  0.1155 -0.7090  0.3976
   13POPC   C2E  665   1.061   2.062   1.127 -0.0619 -0.6228 -0.3676
   13POPC   C2F  666   1.036   2.054   1.277 -0.0439  0.1164 -0.3240
   13POPC   C2G  667   0.895   2.102   1.312 -0.2239 -0.3163 -0.4478
   13POPC   C2H  668   0.879   2.127   1.462  0.2915 -0.3192 -0.3922
   13POPC   C2I  669   0.731   2.147   1.494  0.3937  0.1831 -0.2267
   13POPC   C2J  670   0.709   2.246   1.609 -0.2309 -0.1781 -0.0323
   13POPC   C2K  671   0.732   2.389   1.559 -0.0073 -0.3088 -0.3073
   13POPC   C2L  672   0.709   2.507   1.653  0.2929 -0.2618 -0.2915
   13POPC   C2M  673   0.801   2.496   1.774 -0.2538 -0.3132  0.1211
   13POPC   C2N  674   0.786   2.604   1.881 -0.2248 -0.1157 -0.0739
   13POPC   C2O  675   0.901   2.592   1.981 -0.1735  0.4297 -0.0604
   13POPC   C2P  676   0.895   2.705   2.084 -0.2328  0.2234  0.1656
   14POPC   CN1  677   4.994   3.771   3.608 -0.0748 -0.5744 -0.1049
   14POPC   CN2  678   5.059   3.997   3.641  0.0762  0.3238  0.2515
   14POPC   CN3  679   5.177   3.825   3.744 -0.5354 -0.3398 -0.3127
   14POPC   NTM  680   5.041   3.868   3.708 -0.3837 -0.0111 -0.5011
   14POPC    CA  681   4.949   3.875   3.822  0.3551 -0.0232  0.1048
   14POPC    CB  682   4.937   3.770   3.934 -0.2624 -0.2025 -0.1222
   14POPC    OA  683   4.946   3.637   3.883  0.7812 -0.3114  0.3325
   14POPC     P  684   4.874   3.529   3.979  0.3746  0.0011  0.3785
   14POPC    OB  685   4.847   3.416   3.887  0.5264  0.2639  0.0065
   14POPC    OC  686   4.766   3.590   0.071 -0.0933 -0.2743 -0.0344
   14POPC    OD  687   4.999   3.483   0.081  0.6328  0.1539  0.1020
   14POPC    CC  688   5.104   3.421   0.007  0.2370 -0.6483  0.2022
   14POPC    CD  689   5.227   3.381   0.089  0.3336  0.3369  0.5500
   14POPC    OE  690   5.346   3.417   0.017 -0.1697  0.2900 -0.3156
   14POPC   C1A  691   5.427   3.491   0.092 -0.6733  0.4067  0.1245
   14POPC    OF  692   5.464   3.462   0.205 -0.2921  0.1285 -0.0714
   14POPC   C1B  693   5.521   3.574   0.013 -0.6980  0.0606 -0.2698
   14POPC   C1C  694   5.471   3.715   3.969 -0.8037  0.0673 -0.0772
   14POPC   C1D  695   5.507   3.834   0.070  0.0368 -0.2523  0.0172
   14POPC   C1E  696   5.448   3.831   0.211  0.2878 -0.1350  0.1255
   14POPC   C1F  697   5.295   3.822   0.212  0.2503  0.4849  0.3329
   14POPC   C1G  698   5.236   3.797   0.351 -0.1361  0.7016  0.2082
   14POPC   C1H  699   5.229   3.921   0.440 -0.3447  0.6729  0.2324
   14POPC   C1I  700   5.198   3.869   0.581 -1.2127  0.2562 -0.1069
   14POPC   C1J  701   5.144   3.946   0.675 -0.5976 -0.3435  0.7526
   14POPC   C1K  702   5.101   4.088   0.638 -0.0467 -0.3222  0.1636
   14POPC   C1L  703   5.019   4.152   0.751  0.1025  0.3197 -0.0902
   14POPC   C1M  704   4.956   4.287   0.716 -0.0553  0.2741  0.0184
   14POPC   C1N  705   4.898   4.365   0.834 -0.0864 -0.1093  0.2604
   14POPC   C1O  706   4.796   4.470   0.790  0.5158  0.2626 -0.2779
   14POPC   C1P  707   4.725   4.529   0.912 -0.1915 -0.2134 -0.4567
   14POPC   C1Q  708   4.581   4.562   0.873 -0.2048 -0.1446 -0.3491
   14POPC   C1R  709   4.520   4.601   1.008 -0.6818 -0.1378 -0.5633
   14POPC    CE  710   5.221   3.234   0.134  0.3094  0.2234  0.1772
   14POPC    OG  711   5.130   3.220   0.243  0.3310 -0.1029  0.1530
   14POPC   C2A  712   5.091   3.101   0.287  0.2894 -0.1295  0.0444
   14POPC    OH  713   5.121   3.004   0.218 -0.2916  0.0834 -0.5205
   14POPC   C2B  714   4.993   3.112   0.398 -0.0444  0.0608 -0.2701
   14POPC   C2C  715   5.048   3.068   0.533 -0.2975  0.1872 -0.1245
   14POPC   C2D  716   4.936   3.047   0.635 -0.1448 -0.4105 -0.0776
   14POPC   C2E  717   4.986   2.982   0.764 -0.5120  0.0499  0.2972
   14POPC   C2F  718   4.975   2.830   0.756  0.1733  0.0031  0.1803
   14POPC   C2G  719   5.054   2.768   0.871  0.4420  0.3142  0.1631
   14POPC   C2H  720   4.988   2.808   1.003 -0.0617  0.2063 -0.0523
   14POPC   C2I  721   5.045   2.722   1.116  0.1048 -0.5486 -0.7073
   14POPC   C2J  722   4.969   2.745   1.246  0.3152  0.0435 -0.6861
   14POPC   C2K  723   4.944   2.889   1.292  0.0840 -0.0649 -0.4664
   14POPC   C2L  724   4.842   2.889   1.406 -0.0146 -0.5042 -0.5510
   14POPC   C2M  725   4.867   2.812   1.535  0.2186  0.0400 -0.2705
   14POPC   C2N  726   4.769   2.857   1.644  0.4753 -0.8454  0.3377
   14POPC   C2O  727   4.768   2.764   1.765 -0.5672 -0.6931  0.4555
   14POPC   C2P  728   4.896   2.743   1.847 -0.2045 -0.2916  0.0011
   15POPC   CN1  729   0.409   3.439   0.324  0.2198 -0.1234 -0.1238
   15POPC   CN2  730   0.171   3.400   0.316  0.3661  0.0963  0.1414
   15POPC   CN3  731   0.332   3.227   0.264 -0.2325 -0.2583 -0.1894
   15POPC   NTM  732   0.300   3.370   0.252  0.2047 -0.1489 -0.0764
   15POPC    CA  733   0.294   3.395   0.108  0.5487  0.1087 -0.0483
   15POPC    CB  734   0.382   3.496   0.033  0.7929  0.4014  0.6303
   15POPC    OA  735   0.374   3.632   0.076 -0.8460  0.5519 -0.0842
   15POPC     P  736   0.458   3.731   3.969  0.3258 -0.2169  0.1356
   15POPC    OB  737   0.420   3.872   0.004 -0.2008 -0.3610  0.1740
   15POPC    OC  738   0.474   3.655   3.843 -0.5348  0.2512 -0.2626
   15POPC    OD  739   0.601   3.710   0.052  0.4248 -0.0569 -0.0145
   15POPC    CC  740   0.625   3.805   0.156 -0.3215  0.3088 -0.1648
   15POPC    CD  741   0.635   3.740   0.294  0.1983  0.4853 -0.1169
   15POPC    OE  742   0.634   3.841   0.396 -0.5082  0.5459 -0.1823
   15POPC   C1A  743   0.533   3.847   0.483  0.1112 -0.0141  0.5958
   15POPC    OF  744   0.437   3.770   0.478  0.0323  0.1062  0.0897
   15POPC   C1B  745   0.542   3.968   0.568  0.1895  0.4540 -0.0661
   15POPC   C1C  746   0.419   3.985   0.657  0.4711  0.3281  0.3502
   15POPC   C1D  747   0.433   3.924   0.797  0.2078  0.6110  0.5007
   15POPC   C1E  748   0.310   3.947   0.885  0.1483  1.2002  0.2679
   15POPC   C1F  749   0.328   3.872   1.017 -0.4924  0.0481 -0.2896
   15POPC   C1G  750   0.216   3.907   1.116 -0.1315 -0.1330  0.1891
   15POPC   C1H  751   0.238   3.849   1.256 -0.1666  0.1357  0.3063
   15POPC   C1I  752   0.111   3.872   1.337 -0.4088  0.3271 -0.1235
   15POPC   C1J  753   0.099   3.805   1.451  0.5546 -0.4865 -0.4871
   15POPC   C1K  754   0.203   3.699   1.490  0.4396 -0.2969  0.3726
   15POPC   C1L  755   0.178   3.660   1.636 -0.3010 -0.2617  0.2610
   15POPC   C1M  756   0.277   3.558   1.692 -0.4543 -0.6454 -0.1544
   15POPC   C1N  757   0.264   3.548   1.845  0.1471 -0.5371 -0.0928
   15POPC   C1O  758   0.352   3.433   1.893  0.3750 -0.1710  0.3719
   15POPC   C1P  759   0.336   3.431   2.045  0.1685  0.2003  0.3576
   15POPC   C1Q  760   0.404   3.306   2.103  0.0383 -0.0826 -0.0949
   15POPC   C1R  761   0.555   3.322   2.118  0.0627  0.1597 -0.5606
   15POPC    CE  762   0.753   3.643   0.299  0.0992  0.3563 -0.2862
   15POPC    OG  763   0.710   3.538   0.386  0.5696  0.0915 -0.3660
   15POPC   C2A  764   0.759   3.532   0.509 -0.2248 -0.1377 -0.0537
   15POPC    OH  765   0.870   3.581   0.530 -0.2803  0.1656 -0.4589
   15POPC   C2B  766   0.695   3.435   0.601  0.0127 -0.0433  0.2138
   15POPC   C2C  767   0.687   3.479   0.747  0.0330  0.3878  0.0867
   15POPC   C2D  768   0.588   3.386   0.817 -0.3399  0.5870 -0.1722
   15POPC   C2E  769   0.526   3.470   0.929 -0.3275  0.3230  0.0333
   15POPC   C2F  770   0.472   3.381   1.042  0.7839 -0.0053  0.3156
   15POPC   C2G  771   0.428   3.464   1.162 -0.0867  0.2280 -0.1567
   15POPC   C2H  772   0.364   3.380   1.273 -0.0961 -0.4491 -0.6712
   15POPC   C2I  773   0.456   3.271   1.329  0.0863 -0.0469 -0.1808
   15POPC   C2J  774   0.396   3.240   1.466 -0.2973  0.1463 -0.3043
   15POPC   C2K  775   0.463   3.115   1.522 -0.1245  0.1467 -0.5086
   15POPC   C2L  776   0.402   3.068   1.655 -0.1180 -0.2311 -0.6375
   15POPC   C2M  777   0.255   3.031   1.638 -0.2475 -0.1061  0.2031
   15POPC   C2N  778   0.212   2.981   1.776 -0.3424 -0.1746  0.1484
   15POPC   C2O  779   0.059   2.968   1.771 -0.3399 -0.0280 -0.3647
   15POPC   C2P  780   0.009   2.901   1.900  0.8568 -0.0172  0.1196
   16POPC   CN1  781   4.645   5.370   3.819  0.4132  0.2124  0.0348
   16POPC   CN2  782   4.744   5.373   0.037  0.0776 -0.1585  0.3581
   16POPC   CN3  783   4.597   5.191   3.965  0.4577  0.0770 -0.2006
   16POPC   NTM  784   4.618   5.336   3.959  0.1947  0.1231 -0.0284
   16POPC    CA  785   4.503   5.417   0.012 -0.1623 -0.3058 -0.1702
   16POPC    CB  786   4.482   5.445   0.161 -0.1568  0.2553 -0.2699
   16POPC    OA  787   4.598   5.496   0.228 -0.6257  0.0157  0.7384
   16POPC     P  788   4.626   5.654   0.214  0.4811 -0.2495 -0.1658
   16POPC    OB  789   4.573   5.698   0.083 -0.1835  0.2296  0.2556
   16POPC    OC  790   4.768   5.679   0.245  0.3743 -0.2869  0.3573
   16POPC    OD  791   4.535   5.686   0.343  1.0183 -0.4962  0.2749
   16POPC    CC  792   4.606   5.743   0.454  0.4918 -0.2088  0.4651
   16POPC    CD  793   4.516   5.813   0.556 -0.3099 -0.0082 -0.3682
   16POPC    OE  794   4.581   5.926   0.614 -0.5140 -0.1773  0.1954
   16POPC   C1A  795   4.553   6.052   0.582  0.0004 -0.1284 -0.0597
   16POPC    OF  796   4.538   6.086   0.465 -0.7342  0.4836  0.2037
   16POPC   C1B  797   4.581   6.142   0.696 -0.2995 -0.4266  0.2473
   16POPC   C1C  798   4.718   6.206   0.677 -0.4401 -0.0393  0.5121
   16POPC   C1D  799   4.717   0.057   0.718 -0.0590  0.1683 -0.2093
   16POPC   C1E  800   4.858   0.110   0.744 -0.5400  1.1065  0.5123
   16POPC   C1F  801   4.901   0.072   0.886  0.0983  0.1432  0.0686
   16POPC   C1G  802   5.032   0.144   0.918 -0.1800  0.6243  0.1320
   16POPC   C1H  803   5.075   0.101   1.058  0.4906  0.4237 -0.1352
   16POPC   C1I  804   5.200   0.179   1.099  0.9054 -0.3791  0.1499
   16POPC   C1J  805   5.200   0.246   1.213  0.2111  0.3613 -0.2748
   16POPC   C1K  806   5.068   0.248   1.291  0.2848  0.5892 -0.1548
   16POPC   C1L  807   5.094   0.264   1.441  0.2768 -0.2549 -0.0611
   16POPC   C1M  808   4.957   0.280   1.507  0.1737  0.0550 -0.3496
   16POPC   C1N  809   4.961   0.278   1.660  0.1692  0.6667 -0.3385
   16POPC   C1O  810   4.818   0.282   1.713  0.2400 -0.7479  0.0064
   16POPC   C1P  811   4.767   0.426   1.700  0.2104 -0.7288  0.3088
   16POPC   C1Q  812   4.620   0.428   1.742 -0.0289 -1.2176 -0.4909
   16POPC   C1R  813   4.515   0.353   1.659 -0.9964 -0.2427 -0.1559
   16POPC    CE  814   4.456   5.703   0.645  0.1645 -0.2291 -0.3212
   16POPC    OG  815   4.397   5.732   0.772  0.4355 -0.0799 -0.2274
   16POPC   C2A  816   4.402   5.631   0.858 -0.2278 -0.0009 -0.0920
   16POPC    OH  817   4.449   5.523   0.821  0.0648  0.2238 -0.3837
   16POPC   C2B  818   4.366   5.668   0.997 -0.6435  0.0904 -0.2236
   16POPC   C2C  819   4.418   5.799   1.057 -0.4237  0.1156 -0.4695
   16POPC   C2D  820   4.330   5.843   1.174 -0.0271  0.2368 -0.2136
   16POPC   C2E  821   4.393   5.939   1.275  0.1671 -0.1498  0.0338
   16POPC   C2F  822   4.290   5.955   1.387  0.2747 -0.3762  0.1661
   16POPC   C2G  823   4.356   6.020   1.508 -0.0122 -0.7414  0.5182
   16POPC   C2H  824   4.255   6.034   1.622 -0.8054  0.3781 -0.2994
   16POPC   C2I  825   4.317   6.104   1.743 -0.0695 -0.0490 -0.4285
   16POPC   C2J  826   4.312   6.253   1.710 -0.2904  0.0892  0.2223
   16POPC   C2K  827   4.169   0.006   1.724 -0.3254  0.0455  0.0218
   16POPC   C2L  828   4.168   0.158   1.708  0.1367  0.0567  0.0896
   16POPC   C2M  829   4.019   0.194   1.715  0.1827  0.1901  0.4006
   16POPC   C2N  830   3.962   0.189   1.857  0.4038 -0.3302  0.4704
   16POPC   C2O  831   3.809   0.191   1.853  0.4114  0.0254  0.3146
   16POPC   C2P  832   3.755   0.121   1.978  0.0903 -0.2407  0.0254
   17POPC   CN1  833   5.533   0.379   3.939 -0.0595 -0.0639  0.1177
   17POPC   CN2  834   5.340   0.277   3.863  0.3352 -0.0577  0.1504
   17POPC   CN3  835   5.350   0.342   0.106  0.1711  0.4118  0.4120
   17POPC   NTM  836   5.426   0.287   3.982 -0.0562  0.0726  0.4235
   17POPC    CA  837   5.479   0.156   0.035  0.1493  0.0647  0.1460
   17POPC    CB  838   5.561   0.155   0.164 -0.3675  0.3000  0.4817
   17POPC    OA  839   5.678   0.236   0.166  0.0272 -0.2678  0.7703
   17POPC     P  840   5.819   0.173   0.120  0.0604  0.3186  0.0343
   17POPC    OB  841   5.893   0.288   0.064  0.0200  0.2189 -0.2228
   17POPC    OC  842   5.773   0.067   0.028  0.2223  0.1786  0.1145
   17POPC    OD  843   5.875   0.115   0.260  0.0957  0.3083  0.0159
   17POPC    CC  844   5.913   0.212   0.357  0.2606  0.4171 -0.1577
   17POPC    CD  845   5.950   0.154   0.494  0.3015  0.0978 -0.3026
   17POPC    OE  846   5.972   0.256   0.592 -0.0633  0.2854 -0.4113
   17POPC   C1A  847   5.867   0.302   0.658 -0.2164 -0.6471  0.0047
   17POPC    OF  848   5.764   0.318   0.592  0.1820 -0.2135 -0.5194
   17POPC   C1B  849   5.900   0.361   0.789 -0.1565  0.0266 -0.3090
   17POPC   C1C  850   5.898   0.514   0.783  0.1104  0.0532  0.1827
   17POPC   C1D  851   5.958   0.569   0.912  0.7073 -0.3381  0.0778
   17POPC   C1E  852   5.989   0.719   0.913 -0.1064 -0.1639  0.1225
   17POPC   C1F  853   6.004   0.758   1.060  0.4975 -0.3022  0.1024
   17POPC   C1G  854   5.866   0.738   1.125  0.4478  0.7809  0.3487
   17POPC   C1H  855   5.854   0.790   1.269 -0.0537  0.3367  0.4703
   17POPC   C1I  856   5.734   0.726   1.338  0.1433 -0.0929  0.4202
   17POPC   C1J  857   5.675   0.785   1.442 -0.0221  0.1719  0.1801
   17POPC   C1K  858   5.722   0.926   1.478  0.4677 -0.0163  0.2998
   17POPC   C1L  859   5.667   0.993   1.604  0.0266  0.0525  0.0731
   17POPC   C1M  860   5.694   1.142   1.584  0.9199 -0.0882  0.1847
   17POPC   C1N  861   5.620   1.217   1.696  0.2186 -0.5192  0.0156
   17POPC   C1O  862   5.673   1.173   1.833  0.0547 -0.3881  0.1212
   17POPC   C1P  863   5.619   1.264   1.943  0.6148  0.2427 -0.1186
   17POPC   C1Q  864   5.678   1.231   2.081 -0.1191 -0.7848 -0.0364
   17POPC   C1R  865   5.566   1.283   2.171  0.0738 -0.1194 -0.1788
   17POPC    CE  866   6.061   0.050   0.482  0.0537 -0.2069  0.0393
   17POPC    OG  867   6.053   6.260   0.595  0.0739  0.0444  0.2348
   17POPC   C2A  868   6.152   6.171   0.605 -0.4407 -0.5755 -0.1312
   17POPC    OH  869   6.222   6.147   0.507 -0.4482 -0.4583 -0.1651
   17POPC   C2B  870   6.139   6.103   0.736 -0.0962 -0.1992  0.0987
   17POPC   C2C  871   6.017   6.011   0.747 -0.0957 -0.3322 -0.8987
   17POPC   C2D  872   6.023   5.932   0.878  0.1606  0.2873 -0.5268
   17POPC   C2E  873   5.990   6.017   1.000  0.0397 -0.6286  0.0883
   17POPC   C2F  874   6.036   5.961   1.135  0.2042 -0.1853  0.2180
   17POPC   C2G  875   6.015   6.060   1.249  0.0900 -0.4383  0.4180
   17POPC   C2H  876   5.879   6.046   1.318 -0.3773  0.2503 -0.3451
   17POPC   C2I  877   5.860   6.155   1.424 -0.0051 -0.2230  0.2168
   17POPC   C2J  878   5.918   6.109   1.558  0.0616 -0.1738  0.2046
   17POPC   C2K  879   5.918   6.226   1.656 -0.1516  0.1783 -0.2097
   17POPC   C2L  880   5.781   6.262   1.714 -0.1970  0.6869 -0.6340
   17POPC   C2M  881   5.796   0.067   1.827 -0.1314  0.1664 -0.1720
   17POPC   C2N  882   5.659   0.071   1.894 -0.2762  0.0832 -0.4638
   17POPC   C2O  883   5.653   0.202   1.972  0.0046 -0.1789  0.0021
   17POPC   C2P  884   5.518   0.233   2.037  0.3808  0.0756  0.6693
   18POPC   CN1  885   3.277   5.096   0.080 -0.3460  0.1572  0.2046
   18POPC   CN2  886   3.228   5.105   3.841  0.0149 -0.4319  0.2895
   18POPC   CN3  887   3.233   5.305   3.958  0.1822  0.3078  0.4399
   18POPC   NTM  888   3.192   5.164   3.970  0.0452  0.3033 -0.0336
   18POPC    CA  889   3.048   5.138   3.986  0.1940 -0.4652  0.0818
   18POPC    CB  890   2.979   5.162   0.132 -0.2025 -0.3465 -0.1412
   18POPC    OA  891   3.041   5.092   0.240  0.2581 -0.0091 -0.1797
   18POPC     P  892   2.956   5.082   0.377  0.1231  0.2529 -0.2443
   18POPC    OB  893   2.831   5.027   0.322  0.0230  0.0599  0.1728
   18POPC    OC  894   2.958   5.221   0.429 -0.8296  0.1945 -0.0324
   18POPC    OD  895   3.052   4.973   0.447 -0.1565  0.2807  0.1824
   18POPC    CC  896   3.167   5.023   0.516 -0.3188  0.4779  0.3118
   18POPC    CD  897   3.285   5.096   0.451 -0.2371  0.1874  0.1352
   18POPC    OE  898   3.406   5.029   0.489 -0.4515 -0.2857  0.0033
   18POPC   C1A  899   3.439   4.915   0.430  0.1059  0.1177 -0.4678
   18POPC    OF  900   3.378   4.868   0.334  0.2105  0.1021 -0.5278
   18POPC   C1B  901   3.563   4.860   0.490 -0.0516  0.1729 -0.0914
   18POPC   C1C  902   3.515   4.796   0.621  0.4891  0.3998  0.2194
   18POPC   C1D  903   3.637   4.720   0.673  0.5075  0.4335  0.2248
   18POPC   C1E  904   3.612   4.664   0.814  0.0381  0.0039 -0.0269
   18POPC   C1F  905   3.499   4.562   0.804  0.1408 -0.1548  0.4277
   18POPC   C1G  906   3.515   4.470   0.925  0.1907 -0.6633  0.0410
   18POPC   C1H  907   3.489   4.548   1.054  0.0394  0.2549 -0.5407
   18POPC   C1I  908   3.380   4.479   1.136  0.0970  0.1896 -0.5192
   18POPC   C1J  909   3.404   4.425   1.255 -0.3182  0.2433 -0.4101
   18POPC   C1K  910   3.538   4.424   1.328 -0.7250 -0.6451  0.3384
   18POPC   C1L  911   3.534   4.468   1.475  0.1325  0.0758  0.1522
   18POPC   C1M  912   3.669   4.462   1.546  0.1943 -0.3539  0.0045
   18POPC   C1N  913   3.651   4.504   1.693 -0.0195  0.5297 -0.2652
   18POPC   C1O  914   3.771   4.455   1.775 -0.5269 -0.9021 -0.3504
   18POPC   C1P  915   3.793   4.551   1.892 -0.5717 -0.5729 -0.6103
   18POPC   C1Q  916   3.854   4.486   2.016 -0.6993  0.1840 -0.1497
   18POPC   C1R  917   3.768   4.376   2.077 -0.1464 -0.2458 -0.1353
   18POPC    CE  918   3.270   5.244   0.486 -0.5409  0.3468 -0.6511
   18POPC    OG  919   3.243   5.254   0.626 -0.2562  0.4122 -0.5984
   18POPC   C2A  920   3.315   5.334   0.703 -0.4237  0.1607 -0.1812
   18POPC    OH  921   3.411   5.396   0.659 -0.2389  0.2708  0.3603
   18POPC   C2B  922   3.289   5.328   0.849 -0.0221  0.1858 -0.1066
   18POPC   C2C  923   3.394   5.238   0.914 -0.1030 -0.1008 -0.3741
   18POPC   C2D  924   3.335   5.096   0.911  0.1316 -0.2029 -0.2209
   18POPC   C2E  925   3.426   4.998   0.984 -0.0929 -0.5400 -0.3936
   18POPC   C2F  926   3.430   5.022   1.135  0.5028  0.2596 -0.5322
   18POPC   C2G  927   3.537   4.935   1.201 -0.0061 -0.0096 -0.0451
   18POPC   C2H  928   3.540   4.954   1.352 -0.0679  0.2263 -0.0739
   18POPC   C2I  929   3.654   4.886   1.427 -0.2136 -0.2018 -0.2388
   18POPC   C2J  930   3.663   4.931   1.573 -0.3672 -0.2235 -0.2231
   18POPC   C2K  931   3.791   4.893   1.647  0.0228  0.0343 -0.7609
   18POPC   C2L  932   3.820   4.979   1.771  0.0737 -0.2639 -0.5643
   18POPC   C2M  933   3.919   4.911   1.866 -0.1191  0.4154  0.1318
   18POPC   C2N  934   4.061   4.901   1.811 -0.2567  0.1973 -0.1893
   18POPC   C2O  935   4.157   4.882   1.929 -0.0620  0.1215 -0.3592
   18POPC   C2P  936   4.305   4.889   1.892  0.0668  0.0974  0.1417
   19POPC   CN1  937   2.805   5.942   0.330  0.1946 -0.0590  0.6002
   19POPC   CN2  938   3.047   5.949   0.353 -0.1524  0.2375  0.2541
   19POPC   CN3  939   2.941   6.127   0.241  0.1064 -0.0095  0.0433
   19POPC   NTM  940   2.932   5.982   0.267 -0.0846  0.0087  0.0751
   19POPC    CA  941   2.942   5.906   0.142  0.2343  0.1280  0.0272
   19POPC    CB  942   2.945   5.753   0.131 -0.1917  0.1135  0.1068
   19POPC    OA  943   3.059   5.686   0.185 -0.1265  0.0294 -0.1343
   19POPC     P  944   3.026   5.534   0.225 -0.2919  0.1106  0.0390
   19POPC    OB  945   3.152   5.458   0.242 -0.4714  0.0554  1.1779
   19POPC    OC  946   2.919   5.479   0.139  0.1220 -0.0589 -0.3735
   19POPC    OD  947   2.968   5.575   0.369 -0.2430  0.4832 -0.0476
   19POPC    CC  948   3.072   5.555   0.466  0.2157  0.8587 -0.4553
   19POPC    CD  949   3.021   5.579   0.609  0.0511 -0.4934 -0.2813
   19POPC    OE  950   3.126   5.592   0.704 -0.3997  0.3070  0.1164
   19POPC   C1A  951   3.179   5.712   0.727  0.0281  0.0941  0.2637
   19POPC    OF  952   3.172   5.808   0.651 -0.4460 -0.1027  0.0536
   19POPC   C1B  953   3.273   5.704   0.841 -0.2575  0.4266  0.5265
   19POPC   C1C  954   3.386   5.804   0.814  0.3470 -0.3005  0.3126
   19POPC   C1D  955   3.488   5.817   0.928  0.3383  0.2869  0.2553
   19POPC   C1E  956   3.427   5.844   1.066 -0.0999 -0.2628  0.1726
   19POPC   C1F  957   3.544   5.906   1.142 -0.3151  0.6520 -0.2320
   19POPC   C1G  958   3.497   5.940   1.284 -0.1119 -0.0183 -0.0042
   19POPC   C1H  959   3.610   5.987   1.377 -0.1352 -0.2883  0.1629
   19POPC   C1I  960   3.711   5.880   1.418  0.0257  0.0001  0.5230
   19POPC   C1J  961   3.755   5.870   1.543  0.2465  0.3585  0.4766
   19POPC   C1K  962   3.695   5.964   1.648  0.3867  0.3823  0.5353
   19POPC   C1L  963   3.691   5.904   1.789 -0.2155 -0.4263  0.1816
   19POPC   C1M  964   3.625   5.991   1.896 -0.0953 -0.0978 -0.0102
   19POPC   C1N  965   3.487   6.029   1.844 -0.1954 -0.1318  0.2290
   19POPC   C1O  966   3.420   6.134   1.932 -0.4839 -0.2702  0.1770
   19POPC   C1P  967   3.282   6.183   1.886 -0.3396 -0.2514 -0.2343
   19POPC   C1Q  968   3.242   0.017   1.955  0.5819 -0.1870  0.1992
   19POPC   C1R  969   3.330   0.132   1.908  0.4082 -0.3654 -0.5851
   19POPC    CE  970   2.927   5.461   0.638 -0.0627 -0.1235  0.8721
   19POPC    OG  971   2.852   5.459   0.760  0.0553 -0.0848  0.9467
   19POPC   C2A  972   2.723   5.493   0.754  0.1594  0.1555 -0.1208
   19POPC    OH  973   2.689   5.568   0.663  0.0169  0.4279  0.1575
   19POPC   C2B  974   2.637   5.446   0.864  0.5824 -0.2263  0.0521
   19POPC   C2C  975   2.640   5.526   0.994 -0.0828 -0.2052  0.0596
   19POPC   C2D  976   2.585   5.461   1.121  0.1070 -0.5337 -0.0255
   19POPC   C2E  977   2.639   5.522   1.251 -0.3198  0.4066 -0.2830
   19POPC   C2F  978   2.562   5.462   1.369  0.0403  0.1282 -0.1908
   19POPC   C2G  979   2.537   5.552   1.490  0.2173  0.2428 -0.2388
   19POPC   C2H  980   2.473   5.476   1.605 -0.0082  0.3383 -0.2998
   19POPC   C2I  981   2.551   5.359   1.666 -0.0427  0.6046  0.2611
   19POPC   C2J  982   2.479   5.267   1.765  0.4583 -0.1973 -0.1098
   19POPC   C2K  983   2.475   5.335   1.902  0.1576 -0.2313 -0.1016
   19POPC   C2L  984   2.617   5.341   1.958 -0.0503 -0.1161  0.4178
   19POPC   C2M  985   2.624   5.399   2.099 -0.1149  0.2504  0.2700
   19POPC   C2N  986   2.571   5.292   2.195 -0.1466  0.2009  0.1979
   19POPC   C2O  987   2.661   5.243   2.309 -0.3855 -0.0728  0.2678
   19POPC   C2P  988   2.705   5.343   2.416 -0.0061 -0.1142  0.1497
   20POPC   CN1  989   0.059   6.013   0.242  0.1463 -0.3662 -0.6733
   20POPC   CN2  990   0.036   5.822   0.369 -0.5286 -0.0570 -0.3798
   20POPC   CN3  991   0.223   5.980   0.406  0.0388  0.0212 -0.2321
   20POPC   NTM  992   0.138   5.909   0.309 -0.1874 -0.1396  0.0814
   20POPC    CA  993   0.218   5.839   0.207 -0.0481  0.0388  0.0682
   20POPC    CB  994   0.357   5.780   0.234  0.4662  1.2654  0.2085
   20POPC    OA  995   0.378   5.708   0.356  0.1373 -0.1145 -0.5235
   20POPC     P  996   0.531   5.659   0.372  0.1069 -0.0969 -0.1840
   20POPC    OB  997   0.606   5.786   0.379 -0.3128  0.1484 -0.1037
   20POPC    OC  998   0.550   5.562   0.261 -0.3821 -0.2931 -0.1006
   20POPC    OD  999   0.521   5.581   0.513  0.5308 -0.3028 -0.2682
   20POPC    CC 1000   0.465   5.665   0.614  0.0022 -0.7189 -0.2094
   20POPC    CD 1001   0.354   5.596   0.693 -0.2122 -0.3998 -0.2295
   20POPC    OE 1002   0.306   5.681   0.797 -0.0573 -0.0778 -0.4212
   20POPC   C1A 1003   0.200   5.760   0.777 -0.0577 -0.0349 -0.2504
   20POPC    OF 1004   0.153   5.766   0.664  0.0237 -0.0128 -0.2832
   20POPC   C1B 1005   0.178   5.857   0.887 -0.3516  0.3218 -0.6227
   20POPC   C1C 1006   0.292   5.958   0.888 -0.0514 -0.0166  0.1950
   20POPC   C1D 1007   0.301   6.029   1.023 -0.5312  0.5232 -0.0517
   20POPC   C1E 1008   0.213   6.154   1.038 -0.4273  0.6083 -0.1477
   20POPC   C1F 1009   0.225   6.226   1.172  0.3598 -0.3517  0.3173
   20POPC   C1G 1010   0.150   6.143   1.277 -0.0270  0.2920  0.5593
   20POPC   C1H 1011   0.116   6.240   1.390 -0.0101  0.7051  0.2148
   20POPC   C1I 1012   0.019   6.179   1.491 -0.3659  0.7191 -0.1169
   20POPC   C1J 1013   0.003   6.227   1.614 -0.4911 -0.3457  0.2933
   20POPC   C1K 1014   0.074   0.060   1.652  0.2413 -0.4218 -0.7792
   20POPC   C1L 1015   6.255   0.148   1.743  0.6953 -0.1943 -0.5631
   20POPC   C1M 1016   0.075   0.263   1.792  0.0207  0.2045 -0.2846
   20POPC   C1N 1017   6.246   0.352   1.871 -0.1023 -0.0844 -0.1073
   20POPC   C1O 1018   6.185   0.293   1.998  0.2219  0.2955  0.2248
   20POPC   C1P 1019   6.086   0.393   2.057 -0.7155 -0.4557 -0.0415
   20POPC   C1Q 1020   5.976   0.330   2.142 -0.5709 -0.1425  0.3835
   20POPC   C1R 1021   5.899   0.435   2.222 -0.4273  0.6516 -0.5013
   20POPC    CE 1022   0.407   5.463   0.748 -0.4968 -0.1399  0.6972
   20POPC    OG 1023   0.528   5.480   0.822  0.1611 -0.0378 -0.3712
   20POPC   C2A 1024   0.566   5.378   0.899  0.2170  0.3106  0.0713
   20POPC    OH 1025   0.556   5.264   0.854 -0.0198  0.3436  0.0385
   20POPC   C2B 1026   0.644   5.430   1.013 -0.3864 -0.1560  0.6988
   20POPC   C2C 1027   0.762   5.334   1.034  0.2739  0.3781 -0.4968
   20POPC   C2D 1028   0.849   5.392   1.145  0.0162  0.0244 -0.1064
   20POPC   C2E 1029   0.789   5.363   1.282  0.3051  0.3188  0.0855
   20POPC   C2F 1030   0.871   5.424   1.396  0.1224  0.6210  0.0579
   20POPC   C2G 1031   0.816   5.377   1.531 -0.4344 -0.0004 -0.3788
   20POPC   C2H 1032   0.839   5.478   1.643 -0.5010 -0.1546 -0.2250
   20POPC   C2I 1033   0.766   5.612   1.631  0.6289  0.4906 -0.0613
   20POPC   C2J 1034   0.795   5.719   1.737  0.5939 -0.1397  0.5894
   20POPC   C2K 1035   0.759   5.672   1.878  0.3486 -0.2758  0.4822
   20POPC   C2L 1036   0.789   5.786   1.976 -0.4069  0.3614 -0.0134
   20POPC   C2M 1037   0.725   5.762   2.113  0.0708  0.6753  0.2655
   20POPC   C2N 1038   0.573   5.756   2.107  0.0933  0.0090  0.3298
   20POPC   C2O 1039   0.491   5.718   2.231 -0.0316 -0.4812  0.1008
   20POPC   C2P 1040   0.524   5.811   2.349  0.0060 -0.6968  0.2609
   21POPC   CN1 1041   3.558   4.377   3.799  0.0665  0.0787 -0.2962
   21POPC   CN2 1042   3.624   4.225   3.972 -0.1643  0.1171  0.3583
   21POPC   CN3 1043   3.521   4.440   0.045  0.2153 -0.4420  0.2435
   21POPC   NTM 1044   3.605   4.367   3.938  0.0006 -0.0127 -0.2803
   21POPC    CA 1045   3.737   4.432   3.935 -0.1542  0.3033 -0.3874
   21POPC    CB 1046   3.810   4.457   0.079 -0.5259 -0.3760 -0.0508
   21POPC    OA 1047   3.773   4.559   0.172 -0.0991 -0.3043  0.0384
   21POPC     P 1048   3.871   4.545   0.300 -0.0564 -0.0880  0.0303
   21POPC    OB 1049   3.834   4.642   0.405  0.4549  0.1215  0.0168
   21POPC    OC 1050   4.011   4.542   0.251 -0.0283 -0.1032  0.1119
   21POPC    OD 1051   3.816   4.401   0.345 -0.3860 -0.0272 -0.1706
   21POPC    CC 1052   3.704   4.411   0.434  0.1283  0.0789  0.4755
   21POPC    CD 1053   3.638   4.275   0.461 -0.2423  0.2770  0.5597
   21POPC    OE 1054   3.504   4.293   0.509 -0.2558  0.0575  0.6055
   21POPC   C1A 1055   3.405   4.293   0.420  0.2090  0.5597  0.0781
   21POPC    OF 1056   3.417   4.340   0.308  0.5904  0.1482 -0.0595
   21POPC   C1B 1057   3.283   4.267   0.499  0.3491  0.3944  0.2444
   21POPC   C1C 1058   3.220   4.402   0.536  0.0867  0.3356  0.0205
   21POPC   C1D 1059   3.104   4.375   0.632 -0.1315  0.0081 -0.3349
   21POPC   C1E 1060   3.054   4.497   0.709  0.2241  0.1143 -0.2713
   21POPC   C1F 1061   3.075   4.488   0.861  0.3550 -0.4199 -0.3198
   21POPC   C1G 1062   3.025   4.618   0.923  0.3643 -0.4516 -0.2458
   21POPC   C1H 1063   3.057   4.632   1.072 -0.0231 -0.1296 -0.1915
   21POPC   C1I 1064   3.008   4.762   1.136  0.0976 -0.1929  0.0278
   21POPC   C1J 1065   2.992   4.783   1.267 -0.0632 -0.3136  0.0274
   21POPC   C1K 1066   3.054   4.674   1.354  0.3519 -0.1989 -0.1217
   21POPC   C1L 1067   3.094   4.717   1.495  0.3102 -0.3570 -0.0608
   21POPC   C1M 1068   3.185   4.624   1.575  0.4270 -0.0208  0.2041
   21POPC   C1N 1069   3.191   4.689   1.713 -0.6572  0.0061  0.2455
   21POPC   C1O 1070   3.259   4.604   1.820 -0.8077 -0.0813  0.2711
   21POPC   C1P 1071   3.279   4.676   1.954  0.4622 -0.2024  0.1580
   21POPC   C1Q 1072   3.154   4.734   2.021  0.3038  0.0865 -0.3803
   21POPC   C1R 1073   3.177   4.767   2.168  0.3334 -0.0969 -0.3432
   21POPC    CE 1074   3.729   4.187   0.546 -0.0649  0.0918  0.1790
   21POPC    OG 1075   3.779   4.239   0.670  0.3842  0.1373 -0.0187
   21POPC   C2A 1076   3.842   4.151   0.746 -0.5313 -0.2579  0.2912
   21POPC    OH 1077   3.899   4.052   0.699 -0.6730 -0.0045 -0.4184
   21POPC   C2B 1078   3.865   4.197   0.885  0.3115  0.3371 -0.0388
   21POPC   C2C 1079   3.845   4.091   0.993  0.1031  0.3201 -0.0933
   21POPC   C2D 1080   3.886   4.153   1.127  0.2374  0.0644 -0.0162
   21POPC   C2E 1081   3.885   4.059   1.248 -0.1176 -0.2584 -0.2683
   21POPC   C2F 1082   3.890   4.147   1.373 -0.1772 -0.1196 -0.3629
   21POPC   C2G 1083   3.934   4.057   1.489  0.2672  0.2485 -0.2461
   21POPC   C2H 1084   3.894   4.104   1.629 -0.7152 -0.6061 -0.2325
   21POPC   C2I 1085   3.981   4.025   1.727  0.3769  0.2447 -0.4924
   21POPC   C2J 1086   3.953   4.082   1.867  0.1696 -0.4196 -0.2598
   21POPC   C2K 1087   4.059   4.015   1.955  0.1698  0.2286  0.2382
   21POPC   C2L 1088   4.048   4.072   2.097 -0.1405 -0.1305  0.3633
   21POPC   C2M 1089   3.916   4.033   2.163 -0.4398  0.1683 -0.0556
   21POPC   C2N 1090   3.905   4.116   2.291 -0.0901 -0.1482  0.1807
   21POPC   C2O 1091   3.786   4.084   2.381 -0.1191 -0.5504  0.0010
   21POPC   C2P 1092   3.660   4.070   2.295 -0.2935 -0.4656  0.2403
   22POPC   CN1 1093   4.114   3.661   0.410  0.2243 -0.2675 -0.2573
   22POPC   CN2 1094   4.297   3.814   0.445  0.2892 -0.1755 -0.1712
   22POPC   CN3 1095   4.177   3.711   0.630  0.3443 -0.0905 -0.1920
   22POPC   NTM 1096   4.166   3.769   0.495  0.2900 -0.2875 -0.2716
   22POPC    CA 1097   4.061   3.871   0.495  0.4294 -0.1413  0.1624
   22POPC    CB 1098   4.021   3.955   0.373 -0.3718  0.0207  0.5365
   22POPC    OA 1099   3.955   3.888   0.265 -0.1396  0.5731  0.0449
   22POPC     P 1100   3.858   3.984   0.179 -0.3422  0.3108 -0.0225
   22POPC    OB 1101   3.828   3.923   0.048  0.0540 -0.2287  0.1321
   22POPC    OC 1102   3.902   4.126   0.181  0.7666 -0.0247  0.3194
   22POPC    OD 1103   3.729   3.961   0.272 -0.1998  0.0305  0.1079
   22POPC    CC 1104   3.681   3.829   0.249  0.7638 -0.3064  0.0019
   22POPC    CD 1105   3.599   3.762   0.359 -0.0329  0.0047 -0.3949
   22POPC    OE 1106   3.505   3.852   0.419  0.3040  0.1913 -0.1454
   22POPC   C1A 1107   3.399   3.799   0.480  0.1551  0.5874 -0.0622
   22POPC    OF 1108   3.338   3.702   0.436 -0.0015  0.4879  0.3707
   22POPC   C1B 1109   3.353   3.887   0.590 -0.7234  0.3275 -0.2164
   22POPC   C1C 1110   3.334   3.808   0.719  0.3090 -0.0561 -0.2894
   22POPC   C1D 1111   3.319   3.889   0.848 -0.0251 -0.0965 -0.3002
   22POPC   C1E 1112   3.427   3.997   0.861 -0.6246  0.4635  0.0766
   22POPC   C1F 1113   3.414   4.048   1.005 -0.5935  0.0386  0.2310
   22POPC   C1G 1114   3.488   3.957   1.103 -0.0956  0.0585 -0.1211
   22POPC   C1H 1115   3.433   3.984   1.243  0.9273  0.1593  0.2649
   22POPC   C1I 1116   3.496   3.875   1.331  0.6743  0.3314  0.6632
   22POPC   C1J 1117   3.493   3.884   1.463  0.5333 -0.1862  0.6938
   22POPC   C1K 1118   3.415   3.999   1.528  0.2658  0.1741 -0.2552
   22POPC   C1L 1119   3.468   4.029   1.668  0.1915 -0.3637 -0.1107
   22POPC   C1M 1120   3.394   4.158   1.703  0.2945 -0.4624  0.4835
   22POPC   C1N 1121   3.419   4.202   1.847 -0.4757  0.3603  0.3777
   22POPC   C1O 1122   3.294   4.146   1.916 -0.4369 -0.5246 -0.2513
   22POPC   C1P 1123   3.296   4.169   2.067  0.2007  0.1115 -0.3465
   22POPC   C1Q 1124   3.312   4.314   2.112  0.5022  0.0129 -0.1351
   22POPC   C1R 1125   3.304   4.310   2.265  0.2214 -0.5979 -0.1637
   22POPC    CE 1126   3.706   3.710   0.456 -0.3568  0.3681  0.1671
   22POPC    OG 1127   3.666   3.654   0.581  0.4059  0.0168  0.2620
   22POPC   C2A 1128   3.761   3.629   0.670  0.2175 -0.0364  0.4480
   22POPC    OH 1129   3.878   3.646   0.637  0.1608 -0.5097 -0.0009
   22POPC   C2B 1130   3.714   3.609   0.809 -0.1130 -0.5882  0.2596
   22POPC   C2C 1131   3.777   3.700   0.915  0.0376 -0.3301 -0.0478
   22POPC   C2D 1132   3.914   3.647   0.957  0.2230  0.1411 -0.0558
   22POPC   C2E 1133   4.008   3.754   1.014  0.1686  0.2657 -0.2013
   22POPC   C2F 1134   4.109   3.683   1.104 -0.3202 -0.0869  0.0773
   22POPC   C2G 1135   4.225   3.781   1.126 -0.3166 -0.1568  0.3676
   22POPC   C2H 1136   4.345   3.752   1.216 -0.0486  0.2999  0.1593
   22POPC   C2I 1137   4.315   3.733   1.364 -0.0990 -0.5537  0.0468
   22POPC   C2J 1138   4.338   3.871   1.427 -0.7228 -0.4225 -0.0077
   22POPC   C2K 1139   4.366   3.864   1.577  0.0272 -0.4152 -0.1434
   22POPC   C2L 1140   4.378   4.003   1.640  0.7337 -0.3724 -0.3665
   22POPC   C2M 1141   4.403   3.978   1.789 -0.1876 -0.0597 -0.1536
   22POPC   C2N 1142   4.480   4.091   1.858  0.6821 -0.4317 -0.5009
   22POPC   C2O 1143   4.475   4.061   2.008  0.0811  0.5871 -0.3064
   22POPC   C2P 1144   4.573   4.160   2.072 -0.2087  0.3751  0.4750
   23POPC   CN1 1145   3.539   5.654   0.507 -0.0681 -0.5054 -0.4969
   23POPC   CN2 1146   3.604   5.801   0.323  0.3299 -0.2339  0.0364
   23POPC   CN3 1147   3.404   5.850   0.434  0.0653 -0.1883 -0.0769
   23POPC   NTM 1148   3.493   5.740   0.397  0.0681 -0.1252 -0.2601
   23POPC    CA 1149   3.412   5.664   0.300 -0.0541  0.1342 -0.3621
   23POPC    CB 1150   3.464   5.549   0.213  0.5577 -0.1668  0.3790
   23POPC    OA 1151   3.591   5.498   0.254  0.5973 -0.1163  0.3181
   23POPC     P 1152   3.636   5.396   0.138  0.1732 -0.0551  0.0977
   23POPC    OB 1153   3.607   5.469   0.012  0.9472 -0.4020 -0.2898
   23POPC    OC 1154   3.579   5.268   0.185 -0.6090  0.1301 -0.3193
   23POPC    OD 1155   3.793   5.413   0.169  0.2171 -0.2400 -0.0231
   23POPC    CC 1156   3.862   5.514   0.095  0.3244 -0.1153  0.2464
   23POPC    CD 1157   3.936   5.610   0.188  0.2801  0.1722 -0.0118
   23POPC    OE 1158   4.017   5.707   0.121  0.1068 -0.0004 -0.4702
   23POPC   C1A 1159   3.985   5.833   0.147 -0.2128 -0.2085  0.1634
   23POPC    OF 1160   3.875   5.867   0.192 -0.1041  0.0939  0.1994
   23POPC   C1B 1161   4.093   5.920   0.097 -0.1185 -0.2630  0.2723
   23POPC   C1C 1162   4.217   5.914   0.187 -0.0119 -0.1700  0.1317
   23POPC   C1D 1163   4.187   5.971   0.326  0.7939 -0.0006  0.2421
   23POPC   C1E 1164   4.215   6.118   0.354  0.9627 -0.0875  0.5338
   23POPC   C1F 1165   4.141   6.177   0.474  0.0934 -1.0044  0.4575
   23POPC   C1G 1166   4.179   6.110   0.607  0.7059 -0.5476  0.5180
   23POPC   C1H 1167   4.124   6.190   0.725 -0.0836  0.1210 -0.2911
   23POPC   C1I 1168   4.164   6.101   0.841 -0.9268  0.4687  0.2816
   23POPC   C1J 1169   4.227   6.146   0.950 -0.0247  0.4154 -0.2032
   23POPC   C1K 1170   4.268   6.293   0.963  0.0165  0.3668  0.2234
   23POPC   C1L 1171   4.184   0.075   1.064 -0.0205 -0.1233  0.5839
   23POPC   C1M 1172   4.247   0.215   1.065  0.6915 -0.4311  0.1129
   23POPC   C1N 1173   4.207   0.329   1.158 -0.0147 -0.3110 -0.3282
   23POPC   C1O 1174   4.242   0.298   1.304  0.0462  0.2499 -0.2208
   23POPC   C1P 1175   4.158   0.381   1.401  0.5803 -0.0652  0.5180
   23POPC   C1Q 1176   4.203   0.527   1.400 -0.3963  0.2382 -0.0531
   23POPC   C1R 1177   4.141   0.607   1.515 -0.6973  0.4827 -0.3831
   23POPC    CE 1178   4.008   5.525   0.293 -0.3858 -0.1759  0.1654
   23POPC    OG 1179   4.046   5.575   0.422  0.2231  0.0369 -0.0970
   23POPC   C2A 1180   3.959   5.641   0.497 -0.5218 -0.3242 -0.6220
   23POPC    OH 1181   3.848   5.590   0.508 -0.3772 -0.5703 -0.2705
   23POPC   C2B 1182   4.019   5.736   0.594 -0.7123 -0.5388 -0.2898
   23POPC   C2C 1183   4.008   5.697   0.741  0.0174 -0.0869 -0.1113
   23POPC   C2D 1184   3.876   5.753   0.794 -0.0558 -0.0607 -0.3226
   23POPC   C2E 1185   3.852   5.687   0.929 -0.2370 -0.0751 -0.3619
   23POPC   C2F 1186   3.955   5.709   1.040 -0.4120  0.2373 -0.2607
   23POPC   C2G 1187   3.891   5.673   1.175  0.2848 -0.2159 -0.0451
   23POPC   C2H 1188   3.994   5.664   1.287  0.1769  0.4626  0.1138
   23POPC   C2I 1189   3.940   5.566   1.391 -0.1969  0.4911 -0.0540
   23POPC   C2J 1190   4.042   5.572   1.505 -0.2615  0.1124  0.0263
   23POPC   C2K 1191   4.007   5.492   1.631  0.0916  0.0395  0.0789
   23POPC   C2L 1192   4.136   5.495   1.713  0.0189  0.2853  0.1841
   23POPC   C2M 1193   4.253   5.426   1.644 -0.5895 -0.4299 -0.1540
   23POPC   C2N 1194   4.375   5.417   1.737 -0.6077 -0.4946 -0.1368
   23POPC   C2O 1195   4.490   5.371   1.646 -0.3629 -0.0790 -0.0383
   23POPC   C2P 1196   4.597   5.306   1.734 -0.1745  0.4048  0.0951
   24POPC   CN1 1197   2.036   2.529   3.655  0.5215  0.4143 -0.1070
   24POPC   CN2 1198   1.815   2.516   3.582  0.1691  0.7665  0.0586
   24POPC   CN3 1199   1.954   2.706   3.526  0.7737  0.0264  0.1767
   24POPC   NTM 1200   1.916   2.611   3.631  0.3995  0.3709  0.3568
   24POPC    CA 1201   1.872   2.700   3.739 -0.4946 -0.2812  0.5431
   24POPC    CB 1202   1.839   2.653   3.881  0.1337 -0.6680  0.5653
   24POPC    OA 1203   1.745   2.545   3.876 -0.1333 -0.4149 -0.0582
   24POPC     P 1204   1.746   2.461   0.025 -0.5763 -0.2879  0.0251
   24POPC    OB 1205   1.890   2.442   0.056 -0.4094  0.3692 -0.3218
   24POPC    OC 1206   1.642   2.365   0.067 -0.7172 -0.1353  0.0250
   24POPC    OD 1207   1.708   2.588   0.117  0.5737 -0.0802  0.2338
   24POPC    CC 1208   1.724   2.551   0.255  0.3450 -0.0757  0.2617
   24POPC    CD 1209   1.614   2.601   0.349 -0.1483 -0.1683 -0.2600
   24POPC    OE 1210   1.626   2.548   0.481 -0.4634  0.2320 -0.0657
   24POPC   C1A 1211   1.598   2.615   0.592  0.2117  0.5828 -0.0962
   24POPC    OF 1212   1.569   2.734   0.585 -0.0106  0.5354 -0.0065
   24POPC   C1B 1213   1.626   2.530   0.710 -0.1293  0.1446 -0.3254
   24POPC   C1C 1214   1.508   2.538   0.807  0.1968  0.0508  0.0844
   24POPC   C1D 1215   1.509   2.442   0.926 -0.2663  0.0019  0.0534
   24POPC   C1E 1216   1.383   2.482   1.002 -0.2749  0.3256 -0.1282
   24POPC   C1F 1217   1.369   2.419   1.141 -0.2123  0.1399 -0.2059
   24POPC   C1G 1218   1.253   2.491   1.210 -0.5238 -0.3856 -0.1736
   24POPC   C1H 1219   1.231   2.436   1.351  0.2421  0.6985  0.3858
   24POPC   C1I 1220   1.111   2.508   1.415 -0.2881 -0.0899  0.2930
   24POPC   C1J 1221   1.118   2.564   1.535 -0.4092 -0.4531  0.4719
   24POPC   C1K 1222   1.236   2.541   1.630 -0.0983 -0.2550  0.1382
   24POPC   C1L 1223   1.278   2.670   1.700 -0.6563  0.2364 -0.4214
   24POPC   C1M 1224   1.384   2.651   1.809 -0.5674  0.4605 -0.4683
   24POPC   C1N 1225   1.349   2.560   1.926 -0.2056  0.2929 -0.4898
   24POPC   C1O 1226   1.277   2.653   2.023 -0.5548 -0.4681 -0.0080
   24POPC   C1P 1227   1.300   2.596   2.163  0.0702  0.3859  0.2465
   24POPC   C1Q 1228   1.236   2.682   2.272  0.5778  0.7000  0.3016
   24POPC   C1R 1229   1.268   2.634   2.413 -0.1718  0.5490  0.4250
   24POPC    CE 1230   1.486   2.564   0.273 -0.4553  0.1945  0.0733
   24POPC    OG 1231   1.362   2.607   0.329 -0.1173  0.7462  0.4024
   24POPC   C2A 1232   1.274   2.509   0.340  0.1634  0.3814 -0.4904
   24POPC    OH 1233   1.301   2.393   0.311 -0.2482  0.0880  0.2718
   24POPC   C2B 1234   1.147   2.563   0.394 -0.0180 -0.6892  0.1981
   24POPC   C2C 1235   1.137   2.573   0.547  0.2267  0.0047  0.1741
   24POPC   C2D 1236   1.030   2.673   0.590  0.4101  0.3413 -0.1420
   24POPC   C2E 1237   0.984   2.670   0.736  0.0358 -0.2116 -0.2656
   24POPC   C2F 1238   1.105   2.705   0.823 -0.1602  0.0807 -0.1055
   24POPC   C2G 1239   1.143   2.853   0.823 -0.7932  0.2428  0.2867
   24POPC   C2H 1240   1.253   2.871   0.927 -0.5588 -0.3055  0.1348
   24POPC   C2I 1241   1.205   2.857   1.072 -0.1605  0.5795  0.3591
   24POPC   C2J 1242   1.304   2.915   1.173  0.3474  0.2929  0.0318
   24POPC   C2K 1243   1.260   2.890   1.317  0.5797  0.0306  0.0573
   24POPC   C2L 1244   1.359   2.979   1.392 -0.4047  1.1608  0.0440
   24POPC   C2M 1245   1.313   2.995   1.537 -0.3839  0.0299  0.1838
   24POPC   C2N 1246   1.422   3.059   1.623 -0.3059  0.2463 -0.0756
   24POPC   C2O 1247   1.368   3.052   1.766  0.2619 -0.6962  0.1040
   24POPC   C2P 1248   1.455   3.152   1.842 -0.3710 -0.1576  0.1373
   25POPC   CN1 1249   1.160   3.758   0.559  0.5390 -0.4711 -0.0007
   25POPC   CN2 1250   1.203   3.551   0.451  0.2151 -0.0303  0.3008
   25POPC   CN3 1251   1.346   3.628   0.617 -0.3380  0.3536  0.6520
   25POPC   NTM 1252   1.266   3.674   0.502  0.7287 -0.0540 -0.2696
   25POPC    CA 1253   1.344   3.735   0.394  0.5998  0.1176 -0.2653
   25POPC    CB 1254   1.274   3.826   0.292 -0.2472 -0.2744 -0.0481
   25POPC    OA 1255   1.141   3.792   0.253 -0.2132 -0.0713 -0.3424
   25POPC     P 1256   1.088   3.892   0.138 -0.2147 -0.0152 -0.2926
   25POPC    OB 1257   0.951   3.843   0.116 -0.5025  0.6729 -0.0793
   25POPC    OC 1258   1.183   3.929   0.031  0.2300 -0.2852  0.0066
   25POPC    OD 1259   1.064   4.022   0.231  0.1305 -0.1850  0.0370
   25POPC    CC 1260   0.964   3.997   0.331  0.6093 -0.0010  0.5672
   25POPC    CD 1261   0.955   4.124   0.416  0.1870  0.2343  0.1753
   25POPC    OE 1262   0.880   4.094   0.534  0.4842 -0.4279  0.2010
   25POPC   C1A 1263   0.930   4.141   0.648 -0.9699  0.4754  0.4858
   25POPC    OF 1264   1.010   4.234   0.644  0.0770 -0.4578 -0.7830
   25POPC   C1B 1265   0.881   4.073   0.770 -0.7016 -0.4065  0.1039
   25POPC   C1C 1266   0.898   3.921   0.754 -0.1081 -0.2914 -0.4313
   25POPC   C1D 1267   0.874   3.861   0.893  0.3294  0.7083  0.0859
   25POPC   C1E 1268   0.889   3.711   0.917 -0.6126  0.5608 -0.2116
   25POPC   C1F 1269   0.885   3.691   1.068  0.0630 -0.1325 -0.2794
   25POPC   C1G 1270   0.745   3.710   1.128  0.3083  0.8061 -0.0007
   25POPC   C1H 1271   0.730   3.688   1.278 -0.2180 -0.3622 -0.2149
   25POPC   C1I 1272   0.606   3.746   1.347 -0.3062 -0.4861 -0.2682
   25POPC   C1J 1273   0.595   3.713   1.476 -0.4166 -0.4951 -0.2799
   25POPC   C1K 1274   0.697   3.610   1.523 -0.3837 -0.4546 -0.2622
   25POPC   C1L 1275   0.684   3.573   1.671 -0.1321  0.0994 -0.1016
   25POPC   C1M 1276   0.769   3.461   1.731 -0.1290  0.1918  0.0666
   25POPC   C1N 1277   0.740   3.318   1.686 -0.3372  0.0809  0.5436
   25POPC   C1O 1278   0.834   3.215   1.749 -0.3474 -0.0120  0.4071
   25POPC   C1P 1279   0.850   3.087   1.667  0.2774  0.1551  0.2629
   25POPC   C1Q 1280   0.920   2.986   1.759 -0.2221  0.0114  0.4864
   25POPC   C1R 1281   0.947   2.856   1.683  0.0081  0.2163  0.2192
   25POPC    CE 1282   0.925   4.245   0.327 -0.2271  0.3631  0.4855
   25POPC    OG 1283   0.796   4.250   0.265  0.0896  0.1967 -0.2045
   25POPC   C2A 1284   0.727   4.359   0.296 -0.1902 -0.0099 -0.1027
   25POPC    OH 1285   0.756   4.433   0.390 -0.0137  0.0145 -0.1762
   25POPC   C2B 1286   0.604   4.370   0.214 -0.2383  0.6397  0.0491
   25POPC   C2C 1287   0.470   4.335   0.278 -0.0314  0.0365  0.1574
   25POPC   C2D 1288   0.434   4.411   0.406  0.2173  0.8435 -0.2477
   25POPC   C2E 1289   0.312   4.342   0.467  0.6083  0.4676  0.1071
   25POPC   C2F 1290   0.228   4.440   0.550 -0.6857 -0.3292 -0.2411
   25POPC   C2G 1291   0.279   4.471   0.690  0.1863  0.0537 -0.6336
   25POPC   C2H 1292   0.258   4.361   0.796 -0.1351  0.3742 -0.3631
   25POPC   C2I 1293   0.326   4.397   0.928  0.3077 -0.4306 -0.3671
   25POPC   C2J 1294   0.474   4.361   0.919  0.3761 -0.1492 -0.3842
   25POPC   C2K 1295   0.553   4.360   1.050 -0.4101  0.5520  0.1062
   25POPC   C2L 1296   0.699   4.325   1.021 -0.3804  0.5950  0.2042
   25POPC   C2M 1297   0.791   4.298   1.140 -0.0416  0.0329 -0.1785
   25POPC   C2N 1298   0.826   4.437   1.194 -0.2141 -0.0911  0.2602
   25POPC   C2O 1299   0.930   4.437   1.305  0.1312  0.9352 -0.0437
   25POPC   C2P 1300   1.070   4.400   1.257  0.1628  0.3327  0.4849
   26POPC   CN1 1301   1.377   5.271   0.245  0.5004  0.3899 -0.2726
   26POPC   CN2 1302   1.524   5.110   0.336  0.1255 -0.3693 -0.4950
   26POPC   CN3 1303   1.492   5.131   0.098 -0.5276  0.2066 -0.4998
   26POPC   NTM 1304   1.425   5.133   0.229 -0.0239  0.1998 -0.2392
   26POPC    CA 1305   1.318   5.033   0.224 -0.1550  0.3177  0.1491
   26POPC    CB 1306   1.215   5.007   0.334 -0.2507  0.3670  0.0716
   26POPC    OA 1307   1.264   4.981   0.466  0.0448  0.2335 -0.0624
   26POPC     P 1308   1.157   5.004   0.584  0.1166  0.2734 -0.0050
   26POPC    OB 1309   1.054   4.907   0.541  0.2566  0.1842 -0.1400
   26POPC    OC 1310   1.139   5.151   0.578 -0.1997  0.2438  0.1952
   26POPC    OD 1311   1.244   4.951   0.708  0.0583  0.5515  0.1562
   26POPC    CC 1312   1.216   4.814   0.739  0.2438  0.4798  0.0119
   26POPC    CD 1313   1.262   4.781   0.881 -0.1547  0.1283  0.0610
   26POPC    OE 1314   1.268   4.640   0.902 -0.1339  0.1569  0.2516
   26POPC   C1A 1315   1.371   4.564   0.863  0.3764  0.6306  0.6560
   26POPC    OF 1316   1.467   4.617   0.808  0.0237  0.1542 -0.4448
   26POPC   C1B 1317   1.359   4.423   0.906  0.3055  0.5025  0.2256
   26POPC   C1C 1318   1.447   4.382   1.024 -0.0650 -0.0910  0.2993
   26POPC   C1D 1319   1.415   4.468   1.147 -0.3713  0.0536  0.1199
   26POPC   C1E 1320   1.548   4.523   1.199 -0.4152 -0.1604  0.4598
   26POPC   C1F 1321   1.528   4.590   1.335 -0.2224  0.7434  0.0517
   26POPC   C1G 1322   1.660   4.621   1.405  0.0201  0.1064 -0.1134
   26POPC   C1H 1323   1.624   4.733   1.504  0.6310  0.1278  0.0889
   26POPC   C1I 1324   1.737   4.771   1.600  0.3697  0.3428  0.3092
   26POPC   C1J 1325   1.747   4.892   1.654 -0.3935  0.0817  1.0626
   26POPC   C1K 1326   1.662   5.006   1.597 -0.2203 -0.0259  0.5910
   26POPC   C1L 1327   1.746   5.129   1.562  0.4319 -0.4219  0.7364
   26POPC   C1M 1328   1.785   5.211   1.685  0.1999  0.9709 -0.0883
   26POPC   C1N 1329   1.870   5.333   1.652  1.1707  0.1971 -0.4708
   26POPC   C1O 1330   1.803   5.428   1.553  0.1424 -0.0142  0.0089
   26POPC   C1P 1331   1.854   5.573   1.558 -0.3511  0.1562  0.1838
   26POPC   C1Q 1332   1.754   5.653   1.475 -0.1471 -0.0192 -0.2383
   26POPC   C1R 1333   1.754   5.798   1.524 -0.5247 -0.1054  0.0168
   26POPC    CE 1334   1.198   4.866   0.991  0.1127 -0.0776  0.3762
   26POPC    OG 1335   1.061   4.847   1.024  0.1221  0.0441  0.4856
   26POPC   C2A 1336   0.990   4.955   1.058  0.0547  0.1018  0.1646
   26POPC    OH 1337   1.045   5.064   1.072 -0.1115  0.1426  0.5025
   26POPC   C2B 1338   0.857   4.926   1.116  0.1991 -0.3068  0.2946
   26POPC   C2C 1339   0.851   4.931   1.269  0.2422 -0.6094  0.3067
   26POPC   C2D 1340   0.935   4.821   1.334  0.2053 -0.5758  0.4115
   26POPC   C2E 1341   0.949   4.833   1.486 -0.4443 -0.5022  0.4673
   26POPC   C2F 1342   1.058   4.739   1.538  0.2714  0.0760  0.0366
   26POPC   C2G 1343   1.053   4.745   1.690  0.1114 -0.0240  0.0356
   26POPC   C2H 1344   1.151   4.642   1.747  0.0290  0.0238  0.2686
   26POPC   C2I 1345   1.296   4.683   1.723  0.1171 -0.2707  0.2842
   26POPC   C2J 1346   1.395   4.574   1.763  0.3427 -0.1599  0.0341
   26POPC   C2K 1347   1.405   4.562   1.916  0.4325  0.0433  0.0443
   26POPC   C2L 1348   1.437   4.697   1.980 -0.8369  0.3608  0.0335
   26POPC   C2M 1349   1.459   4.701   2.132  0.1359  0.3455 -0.1021
   26POPC   C2N 1350   1.597   4.637   2.148 -0.0238  0.1324  0.4340
   26POPC   C2O 1351   1.712   4.733   2.119 -0.3500  0.3081 -0.3083
   26POPC   C2P 1352   1.730   4.836   2.231 -0.7275 -0.3522  0.3701
   27POPC   CN1 1353   2.414   5.419   0.277 -0.3114  0.0147  0.5851
   27POPC   CN2 1354   2.608   5.302   0.370  0.7197 -0.2197  0.4980
   27POPC   CN3 1355   2.612   5.536   0.340 -0.6311 -0.4061  0.0838
   27POPC   NTM 1356   2.561   5.410   0.282 -0.3471 -0.6995  0.4640
   27POPC    CA 1357   2.627   5.383   0.154 -0.7237 -0.1375  0.1468
   27POPC    CB 1358   2.627   5.495   0.050 -0.0425 -0.8707 -0.6620
   27POPC    OA 1359   2.508   5.568   0.020  0.3022  0.0022  0.0521
   27POPC     P 1360   2.536   5.727   0.011 -0.3315  0.1200  0.0923
   27POPC    OB 1361   2.441   5.811   3.924 -0.1361  0.3608  0.1140
   27POPC    OC 1362   2.678   5.762   3.979 -0.3584  0.0489 -0.2160
   27POPC    OD 1363   2.507   5.757   0.166  0.0576 -0.5727  0.3021
   27POPC    CC 1364   2.369   5.788   0.184  0.0915 -0.1065 -0.2207
   27POPC    CD 1365   2.318   5.772   0.328  0.2912  0.1362 -0.1236
   27POPC    OE 1366   2.177   5.793   0.332  0.2712 -0.0593  0.2519
   27POPC   C1A 1367   2.106   5.698   0.272  0.4542 -0.0036 -0.0568
   27POPC    OF 1368   2.151   5.585   0.256  0.2738 -0.1281  0.2868
   27POPC   C1B 1369   1.963   5.727   0.246  0.3433 -0.5406 -0.0747
   27POPC   C1C 1370   1.881   5.689   0.369  0.3917 -0.5356 -0.0407
   27POPC   C1D 1371   1.891   5.781   0.490 -0.3146  0.2418 -0.5584
   27POPC   C1E 1372   1.817   5.714   0.607 -0.3914  0.2808 -0.5849
   27POPC   C1F 1373   1.797   5.820   0.715  0.0468 -0.1506 -0.0792
   27POPC   C1G 1374   1.722   5.766   0.838  0.2602 -0.1357  0.0577
   27POPC   C1H 1375   1.814   5.664   0.905  0.0608 -0.5740 -0.3288
   27POPC   C1I 1376   1.789   5.645   1.055  0.0716  0.3070 -0.2135
   27POPC   C1J 1377   1.794   5.524   1.110  0.1261  0.4833  0.1680
   27POPC   C1K 1378   1.808   5.402   1.020  0.2821  0.3958  0.3097
   27POPC   C1L 1379   1.780   5.278   1.106 -0.3116  0.1641 -0.2084
   27POPC   C1M 1380   1.778   5.154   1.015  0.2798  0.0326 -0.0520
   27POPC   C1N 1381   1.747   5.024   1.089  0.4051 -0.1430 -0.3078
   27POPC   C1O 1382   1.842   4.919   1.031  0.3307 -0.2235 -0.2849
   27POPC   C1P 1383   1.975   4.933   1.105  0.2421  0.3424 -0.2225
   27POPC   C1Q 1384   2.065   4.810   1.122  0.1670  0.3513  0.2568
   27POPC   C1R 1385   2.150   4.786   0.997 -0.2724  0.3977 -0.0542
   27POPC    CE 1386   2.406   5.863   0.414  0.0091  0.1239  0.1779
   27POPC    OG 1387   2.426   5.803   0.542 -0.0650 -0.1730  0.0502
   27POPC   C2A 1388   2.534   5.842   0.609 -0.2072  0.2733  0.0185
   27POPC    OH 1389   2.633   5.881   0.546  0.1397  0.0194  0.4048
   27POPC   C2B 1390   2.524   5.808   0.753  0.2446 -0.3690 -0.0967
   27POPC   C2C 1391   2.541   5.935   0.837 -0.6975  0.1121 -0.6068
   27POPC   C2D 1392   2.558   5.907   0.987 -0.4791 -0.4401 -0.7294
   27POPC   C2E 1393   2.550   6.043   1.058  0.0994 -0.6772 -0.2012
   27POPC   C2F 1394   2.538   6.035   1.210  0.2657  0.2885 -0.1352
   27POPC   C2G 1395   2.661   5.967   1.269 -0.3544 -0.4704  0.2923
   27POPC   C2H 1396   2.652   5.969   1.422 -0.7472 -0.1668  0.2643
   27POPC   C2I 1397   2.777   5.938   1.505 -0.1172 -0.3621 -0.7453
   27POPC   C2J 1398   2.762   5.957   1.656 -0.1525 -0.4416 -0.7386
   27POPC   C2K 1399   2.652   5.872   1.720  0.2372 -0.5987 -0.2686
   27POPC   C2L 1400   2.661   5.862   1.872 -0.2306  0.6822 -0.1451
   27POPC   C2M 1401   2.539   5.796   1.937  0.1661 -0.0010 -0.0902
   27POPC   C2N 1402   2.537   5.831   2.086 -0.3428 -0.1032 -0.0700
   27POPC   C2O 1403   2.420   5.773   2.165 -0.4140 -0.5540 -0.5040
   27POPC   C2P 1404   2.433   5.810   2.313  0.0310 -0.1476 -0.6435
   28POPC   CN1 1405   3.001   4.619   0.298  0.3157  0.2706  0.1121
   28POPC   CN2 1406   3.228   4.576   0.219 -0.2416 -0.4362 -0.5774
   28POPC   CN3 1407   3.106   4.764   0.149 -0.2496  0.2845 -0.0779
   28POPC   NTM 1408   3.093   4.622   0.183 -0.1096  0.2345 -0.2342
   28POPC    CA 1409   3.048   4.547   0.065  0.4487 -0.0579 -0.2653
   28POPC    CB 1410   3.007   4.401   0.083 -0.3489  0.2630  0.6083
   28POPC    OA 1411   2.886   4.367   0.151 -0.5396 -0.1262  0.0820
   28POPC     P 1412   2.896   4.221   0.218  0.0376 -0.0169  0.2358
   28POPC    OB 1413   3.003   4.216   0.321 -0.2121 -0.1831  0.4898
   28POPC    OC 1414   2.893   4.130   0.101 -0.0294  0.1278  0.1259
   28POPC    OD 1415   2.755   4.232   0.294 -0.0513  0.1827  0.0401
   28POPC    CC 1416   2.768   4.312   0.413  0.3662  0.0485  0.0855
   28POPC    CD 1417   2.629   4.361   0.453  0.3463  0.1675 -0.1286
   28POPC    OE 1418   2.618   4.458   0.558  0.1607  0.1030 -0.0881
   28POPC   C1A 1419   2.667   4.580   0.543  0.4445 -0.0055 -0.0461
   28POPC    OF 1420   2.689   4.621   0.429  0.3668 -0.3318 -0.1801
   28POPC   C1B 1421   2.699   4.647   0.671 -0.8952  0.2800  0.1595
   28POPC   C1C 1422   2.700   4.797   0.642  0.3593  0.1985 -0.2951
   28POPC   C1D 1423   2.760   4.880   0.756  0.1551 -0.1801  0.0930
   28POPC   C1E 1424   2.790   5.024   0.715 -0.0237 -0.0348  0.4767
   28POPC   C1F 1425   2.869   5.102   0.820  0.2267  0.2033  0.1114
   28POPC   C1G 1426   2.801   5.103   0.957  0.0864  0.2022  0.0410
   28POPC   C1H 1427   2.891   5.178   1.055  0.4526  0.1252 -0.2334
   28POPC   C1I 1428   2.849   5.161   1.201  0.8877  0.5790 -0.0560
   28POPC   C1J 1429   2.942   5.145   1.296  0.4473  0.3764  0.3461
   28POPC   C1K 1430   3.092   5.154   1.272  0.4135 -0.3096 -0.1496
   28POPC   C1L 1431   3.165   5.209   1.395  0.4866 -0.1090 -0.2829
   28POPC   C1M 1432   3.173   5.115   1.516 -0.0140 -0.0033 -0.1628
   28POPC   C1N 1433   3.261   5.172   1.627  0.0092  0.0244 -0.1950
   28POPC   C1O 1434   3.281   5.070   1.739 -0.3713 -0.1693 -0.3007
   28POPC   C1P 1435   3.387   5.108   1.843 -0.2453 -0.4193 -0.3344
   28POPC   C1Q 1436   3.338   5.214   1.942  0.0768 -0.0420 -0.5756
   28POPC   C1R 1437   3.238   5.166   2.047 -0.0196  0.5588 -0.3870
   28POPC    CE 1438   2.538   4.239   0.472  0.1265  0.3337 -0.1050
   28POPC    OG 1439   2.569   4.133   0.562  0.1835  0.3596 -0.0942
   28POPC   C2A 1440   2.474   4.040   0.557  0.6683 -0.1181 -0.4980
   28POPC    OH 1441   2.401   4.017   0.461 -0.1921 -0.0837  0.1436
   28POPC   C2B 1442   2.475   3.958   0.680 -0.2072 -0.5693 -0.7898
   28POPC   C2C 1443   2.408   3.820   0.684 -0.4306 -0.4426 -0.1275
   28POPC   C2D 1444   2.427   3.741   0.814  0.1803 -0.0702  0.0094
   28POPC   C2E 1445   2.570   3.691   0.839  0.2147 -0.0402 -0.1286
   28POPC   C2F 1446   2.600   3.647   0.982 -0.2233  0.2440  0.0532
   28POPC   C2G 1447   2.522   3.526   1.035 -0.1346  0.4217  0.5900
   28POPC   C2H 1448   2.535   3.502   1.186 -0.1300  0.4663  0.5969
   28POPC   C2I 1449   2.671   3.450   1.232  0.1689  0.5845 -0.1289
   28POPC   C2J 1450   2.667   3.461   1.385  0.2738 -0.3259 -0.0529
   28POPC   C2K 1451   2.769   3.373   1.458  0.3508 -0.3111 -0.1413
   28POPC   C2L 1452   2.768   3.408   1.607  0.0121 -0.2404 -0.1587
   28POPC   C2M 1453   2.837   3.312   1.704 -0.0924  0.0639  0.2186
   28POPC   C2N 1454   2.813   3.335   1.854 -0.2950 -0.1537  0.2212
   28POPC   C2O 1455   2.866   3.215   1.932  0.4012  0.1473  0.2145
   28POPC   C2P 1456   2.754   3.113   1.914  0.0286  0.6446 -0.3192
   29POPC   CN1 1457   1.409   0.478   0.065  0.3495 -0.2786 -0.2581
   29POPC   CN2 1458   1.453   0.453   3.819 -0.7806 -0.9755 -0.6097
   29POPC   CN3 1459   1.294   0.604   3.874  0.1261  0.0919 -0.0967
   29POPC   NTM 1460   1.349   0.475   3.920 -0.0744  0.0130 -0.0776
   29POPC    CA 1461   1.248   0.369   3.908 -0.1738  0.1106 -0.1011
   29POPC    CB 1462   1.110   0.396   3.970 -0.1827 -0.2321  0.0289
   29POPC    OA 1463   1.126   0.411   0.122 -0.1692 -0.5100  0.0579
   29POPC     P 1464   1.021   0.502   0.202  0.1172  0.0148 -0.1581
   29POPC    OB 1465   0.993   0.437   0.332 -0.6322 -0.3217 -0.4808
   29POPC    OC 1466   0.906   0.538   0.116  0.1759  0.5404 -0.0252
   29POPC    OD 1467   1.099   0.643   0.199  0.1898 -0.0165  0.1655
   29POPC    CC 1468   1.173   0.650   0.321  0.4787  0.4267 -0.0313
   29POPC    CD 1469   1.257   0.777   0.334  0.1114  0.7452 -0.7144
   29POPC    OE 1470   1.368   0.764   0.424 -0.1629 -0.2307 -0.5055
   29POPC   C1A 1471   1.461   0.670   0.411  0.0902 -0.0718  0.1354
   29POPC    OF 1472   1.496   0.653   0.294  0.1887 -0.0612  0.1634
   29POPC   C1B 1473   1.542   0.630   0.528  0.0765  0.1491  0.2205
   29POPC   C1C 1474   1.484   0.661   0.667 -0.2050 -0.3086  0.2062
   29POPC   C1D 1475   1.580   0.659   0.786  0.0767  0.3492 -0.0088
   29POPC   C1E 1476   1.535   0.733   0.912  0.0411 -0.2215  0.3164
   29POPC   C1F 1477   1.642   0.743   1.021  0.4719  0.3001 -0.1494
   29POPC   C1G 1478   1.592   0.814   1.147  0.0313  0.0791 -0.1989
   29POPC   C1H 1479   1.691   0.797   1.263 -0.2770  0.0244  0.0585
   29POPC   C1I 1480   1.645   0.839   1.402 -0.0264 -0.2804  0.2348
   29POPC   C1J 1481   1.684   0.958   1.449  0.3841 -0.2039 -0.2922
   29POPC   C1K 1482   1.768   1.050   1.361  0.2102 -0.2296 -0.4879
   29POPC   C1L 1483   1.740   1.194   1.403  0.1275 -0.1912 -0.6737
   29POPC   C1M 1484   1.844   1.278   1.329  0.5035  0.1982  0.2831
   29POPC   C1N 1485   1.813   1.426   1.348  0.0993 -0.0173  1.3963
   29POPC   C1O 1486   1.923   1.525   1.308 -0.2530 -0.2618 -0.2421
   29POPC   C1P 1487   1.930   1.519   1.155  0.1708  0.4934 -0.2555
   29POPC   C1Q 1488   2.018   1.629   1.096  0.5598  0.4864  0.3061
   29POPC   C1R 1489   1.945   1.755   1.049 -0.0939 -0.0034  0.0047
   29POPC    CE 1490   1.160   0.893   0.355 -0.1255  0.4459 -0.1475
   29POPC    OG 1491   1.045   0.865   0.436  0.1385  0.1500  0.1283
   29POPC   C2A 1492   0.934   0.934   0.413 -0.0860 -0.1688  0.2479
   29POPC    OH 1493   0.932   1.040   0.351 -0.5471 -0.2459  0.1284
   29POPC   C2B 1494   0.823   0.881   0.495  0.0562 -0.3064  0.3509
   29POPC   C2C 1495   0.790   0.734   0.467  0.9379 -0.3828 -0.3176
   29POPC   C2D 1496   0.755   0.658   0.594  0.0061 -0.2282 -0.4725
   29POPC   C2E 1497   0.722   0.511   0.566 -0.5845 -0.2049  0.0554
   29POPC   C2F 1498   0.694   0.411   0.677  0.1615 -0.2786  0.1796
   29POPC   C2G 1499   0.596   0.458   0.784  0.0990  0.4832 -0.2083
   29POPC   C2H 1500   0.454   0.451   0.728  0.2146  0.5310 -0.5049
   29POPC   C2I 1501   0.353   0.517   0.822  0.0928 -0.4174  0.0375
   29POPC   C2J 1502   0.318   0.416   0.931  0.1792 -0.7122 -0.2050
   29POPC   C2K 1503   0.203   0.476   1.012  0.3959 -0.1403 -0.3172
   29POPC   C2L 1504   0.161   0.411   1.144  0.2082 -0.0313 -0.3243
   29POPC   C2M 1505   0.275   0.420   1.245  0.0564 -0.0500 -0.1493
   29POPC   C2N 1506   0.298   0.278   1.299  0.5077  0.0133 -0.1681
   29POPC   C2O 1507   0.412   0.273   1.401  0.1946 -0.2378  0.1724
   29POPC   C2P 1508   0.446   0.128   1.437  0.0757 -0.1836  0.5015
   30POPC   CN1 1509   3.767   2.771   0.168  0.1335 -0.0496  0.0126
   30POPC   CN2 1510   3.611   2.942   0.198  0.3462  0.2914  0.6032
   30POPC   CN3 1511   3.584   2.735   0.313  0.6769  0.4596 -0.1028
   30POPC   NTM 1512   3.624   2.796   0.185  0.1646  0.3487 -0.3162
   30POPC    CA 1513   3.547   2.745   0.071  0.3920 -0.6658 -0.0246
   30POPC    CB 1514   3.396   2.763   0.051  0.3894 -0.3072  0.3145
   30POPC    OA 1515   3.318   2.695   0.150 -0.2535  0.0369  0.0463
   30POPC     P 1516   3.175   2.769   0.159 -0.2371  0.0924 -0.1413
   30POPC    OB 1517   3.065   2.680   0.203 -0.2497  0.1813  0.0071
   30POPC    OC 1518   3.152   2.855   0.041  0.3734  0.2117 -0.1754
   30POPC    OD 1519   3.203   2.876   0.276 -0.0615 -0.0752 -0.0285
   30POPC    CC 1520   3.157   2.821   0.400  0.3871  0.2477  0.2800
   30POPC    CD 1521   3.056   2.919   0.461 -0.2202 -0.2530  0.0798
   30POPC    OE 1522   3.112   2.953   0.589 -0.1810 -0.2320  0.0570
   30POPC   C1A 1523   3.074   3.066   0.646  0.2686 -0.0523  0.0046
   30POPC    OF 1524   3.032   3.155   0.571 -0.1759 -0.2456  0.0219
   30POPC   C1B 1525   3.137   3.065   0.779  0.0320  0.1322  0.1206
   30POPC   C1C 1526   3.057   3.120   0.898 -0.2572 -0.2812  0.1200
   30POPC   C1D 1527   3.051   3.272   0.882  0.1223 -0.2398  0.3660
   30POPC   C1E 1528   3.155   3.346   0.967  0.5035 -0.0805 -0.2268
   30POPC   C1F 1529   3.158   3.498   0.954  0.2955 -0.1063 -0.5950
   30POPC   C1G 1530   3.035   3.567   1.014  0.4248 -0.3010 -0.0950
   30POPC   C1H 1531   3.030   3.587   1.165  0.4720  0.2505 -0.1625
   30POPC   C1I 1532   3.129   3.689   1.222 -0.0907  0.5903  0.2191
   30POPC   C1J 1533   3.182   3.670   1.343 -0.4604  0.0657  0.3034
   30POPC   C1K 1534   3.130   3.565   1.441 -0.6422  0.3689  0.5339
   30POPC   C1L 1535   3.241   3.524   1.539 -0.4293  0.3757  0.2959
   30POPC   C1M 1536   3.174   3.431   1.641  0.5504 -0.2940  0.3388
   30POPC   C1N 1537   3.289   3.406   1.739  0.8503  0.2553  0.1325
   30POPC   C1O 1538   3.244   3.325   1.860  0.2606 -0.1310 -0.3378
   30POPC   C1P 1539   3.355   3.265   1.947 -0.2448 -0.4020  0.1287
   30POPC   C1Q 1540   3.302   3.181   2.063 -0.4916 -0.0757  0.2540
   30POPC   C1R 1541   3.411   3.113   2.148 -0.2272 -0.4374 -0.3700
   30POPC    CE 1542   2.916   2.857   0.460 -0.2769 -0.1178 -0.3195
   30POPC    OG 1543   2.900   2.726   0.516 -0.0140 -0.0379 -0.0525
   30POPC   C2A 1544   2.804   2.708   0.606  0.2547 -0.0366  0.2360
   30POPC    OH 1545   2.734   2.804   0.638  0.0478 -0.1259  0.0598
   30POPC   C2B 1546   2.792   2.569   0.656 -0.1471 -0.0937 -0.0143
   30POPC   C2C 1547   2.897   2.544   0.764 -0.2688 -0.1662  0.0876
   30POPC   C2D 1548   2.877   2.627   0.891  0.2028  0.6983 -0.3939
   30POPC   C2E 1549   2.997   2.626   0.985 -0.0881 -0.4480 -0.0163
   30POPC   C2F 1550   2.983   2.742   1.084  0.2154 -0.1065 -0.3739
   30POPC   C2G 1551   3.093   2.725   1.190 -0.0899 -0.1246 -0.0607
   30POPC   C2H 1552   3.073   2.607   1.285 -0.8419 -0.2805 -0.4023
   30POPC   C2I 1553   3.205   2.532   1.303 -0.8941 -0.3864 -0.4596
   30POPC   C2J 1554   3.181   2.414   1.397  0.3798 -0.4003 -0.1407
   30POPC   C2K 1555   3.316   2.344   1.419  0.4157 -0.4634 -0.5589
   30POPC   C2L 1556   3.308   2.233   1.524 -0.1005 -0.3239 -0.4454
   30POPC   C2M 1557   3.423   2.137   1.491  0.3772  0.0655  0.0734
   30POPC   C2N 1558   3.408   2.006   1.569  0.2210  0.2274  0.3206
   30POPC   C2O 1559   3.535   1.933   1.524  0.1122  0.1411  0.1505
   30POPC   C2P 1560   3.567   1.808   1.606  0.1402  0.3747  0.4965
   31POPC   CN1 1561   4.596   5.362   0.501 -0.8587  0.4323  0.0963
   31POPC   CN2 1562   4.358   5.382   0.512 -0.5431  0.4625  0.1331
   31POPC   CN3 1563   4.505   5.275   0.685  0.1117 -0.3551 -0.2060
   31POPC   NTM 1564   4.472   5.295   0.543 -0.7360  0.1791  0.0575
   31POPC    CA 1565   4.462   5.170   0.467  0.7862 -0.2507  0.5174
   31POPC    CB 1566   4.361   5.062   0.506  0.2245  0.0705 -0.0172
   31POPC    OA 1567   4.222   5.093   0.506  0.1818 -0.1103  0.4923
   31POPC     P 1568   4.136   4.958   0.492  0.1090 -0.0318  0.1636
   31POPC    OB 1569   4.199   4.870   0.391  0.2932  0.3151 -0.0223
   31POPC    OC 1570   3.993   4.994   0.488 -0.0655 -0.7014  0.1281
   31POPC    OD 1571   4.160   4.900   0.641  0.3602 -0.1901  0.0624
   31POPC    CC 1572   4.079   4.936   0.753  0.2168  0.1062 -0.1341
   31POPC    CD 1573   4.119   4.844   0.869 -0.1192 -0.2369 -0.2848
   31POPC    OE 1574   4.003   4.807   0.944 -0.1802 -0.3461 -0.4323
   31POPC   C1A 1575   4.000   4.695   1.016 -0.7512 -0.5340 -0.7516
   31POPC    OF 1576   4.088   4.611   0.995  0.2082  0.1933  0.2734
   31POPC   C1B 1577   3.900   4.696   1.125 -0.0328 -0.2408 -0.0880
   31POPC   C1C 1578   3.911   4.593   1.238 -0.5655  0.6282  0.7722
   31POPC   C1D 1579   4.038   4.614   1.321  0.0490  0.4602 -0.1068
   31POPC   C1E 1580   4.023   4.533   1.450  0.0727  0.3821 -0.1535
   31POPC   C1F 1581   4.137   4.567   1.546 -0.2584  0.1509  0.3265
   31POPC   C1G 1582   4.134   4.470   1.664  0.5063 -0.2603  0.0176
   31POPC   C1H 1583   4.226   4.513   1.778 -0.1524 -0.5031  0.6460
   31POPC   C1I 1584   4.362   4.446   1.764 -0.0458 -0.0809 -0.4118
   31POPC   C1J 1585   4.456   4.448   1.859 -0.1332  0.1185 -0.3295
   31POPC   C1K 1586   4.425   4.520   1.990  0.0984 -0.1567 -0.1221
   31POPC   C1L 1587   4.549   4.569   2.066 -0.2688 -0.1056  0.4556
   31POPC   C1M 1588   4.518   4.645   2.195  0.4514  0.3091  0.3893
   31POPC   C1N 1589   4.641   4.640   2.286  0.3142 -0.4079  0.5422
   31POPC   C1O 1590   4.614   4.725   2.409  0.2487  0.2150  0.1004
   31POPC   C1P 1591   4.747   4.755   2.479  0.4666 -0.0167 -0.2147
   31POPC   C1Q 1592   4.719   4.802   2.622 -0.0272  0.0737 -0.3385
   31POPC   C1R 1593   4.842   4.861   2.690 -0.5858  0.4449  0.3698
   31POPC    CE 1594   4.243   4.905   0.935  0.3607 -0.8517 -0.6200
   31POPC    OG 1595   4.370   4.913   0.869  0.4775 -0.2479 -0.3235
   31POPC   C2A 1596   4.461   4.994   0.922  0.0842 -0.2661  0.3932
   31POPC    OH 1597   4.564   5.008   0.856 -0.3740 -0.2833 -0.3300
   31POPC   C2B 1598   4.444   5.051   1.058  0.3246 -0.2180  0.4046
   31POPC   C2C 1599   4.475   5.200   1.048 -0.1727 -0.1567 -0.3502
   31POPC   C2D 1600   4.485   5.257   1.190 -0.6706  0.0348 -0.3876
   31POPC   C2E 1601   4.555   5.392   1.175 -0.2851 -0.1502 -0.2596
   31POPC   C2F 1602   4.578   5.472   1.304 -0.3677  0.1364 -0.4246
   31POPC   C2G 1603   4.625   5.615   1.278  0.0734  0.0398 -0.1503
   31POPC   C2H 1604   4.662   5.681   1.411 -0.0201  0.4563 -0.3272
   31POPC   C2I 1605   4.811   5.664   1.443 -0.0661 -0.2820 -0.4901
   31POPC   C2J 1606   4.850   5.748   1.564  0.0963  0.0694 -0.7860
   31POPC   C2K 1607   4.989   5.716   1.620 -0.0154  0.8065 -0.0558
   31POPC   C2L 1608   5.012   5.789   1.752 -0.4390  0.3708  0.2582
   31POPC   C2M 1609   5.138   5.741   1.826 -0.1349  0.4683 -0.1897
   31POPC   C2N 1610   5.186   5.811   1.953  0.1820  0.1818 -0.1508
   31POPC   C2O 1611   5.221   5.960   1.946 -0.3996  0.3363  0.1694
   31POPC   C2P 1612   5.295   6.021   2.065  0.1987 -0.1609  0.0581
   32POPC   CN1 1613   0.795   4.670   0.847 -0.2982 -0.4873  0.0966
   32POPC   CN2 1614   0.723   4.490   0.709 -0.0242 -0.2781  0.3173
   32POPC   CN3 1615   0.932   4.488   0.781 -0.1380 -0.1779 -0.0822
   32POPC   NTM 1616   0.832   4.585   0.733 -0.0683 -0.1180 -0.1051
   32POPC    CA 1617   0.873   4.660   0.613  0.2220 -0.2523 -0.0925
   32POPC    CB 1618   0.763   4.729   0.531 -0.2176 -0.6721  0.1424
   32POPC    OA 1619   0.689   4.818   0.615 -0.1464 -0.0236 -0.4799
   32POPC     P 1620   0.548   4.868   0.555 -0.3345 -0.1934 -0.1809
   32POPC    OB 1621   0.471   4.749   0.513  0.1833 -0.4959 -0.2817
   32POPC    OC 1622   0.591   4.969   0.456  0.0232 -0.2711 -0.1069
   32POPC    OD 1623   0.488   4.937   0.687  0.3808 -0.3293  0.2176
   32POPC    CC 1624   0.482   4.842   0.794 -0.4683 -0.2927  0.2076
   32POPC    CD 1625   0.460   4.902   0.932 -0.4825 -0.5262  0.3079
   32POPC    OE 1626   0.407   4.809   1.027 -0.5516 -0.2718  0.5232
   32POPC   C1A 1627   0.491   4.739   1.103  0.4638  0.5377  0.1770
   32POPC    OF 1628   0.605   4.714   1.065  0.3539 -0.0208  0.2088
   32POPC   C1B 1629   0.415   4.672   1.211 -0.0247 -0.0195 -0.5024
   32POPC   C1C 1630   0.504   4.657   1.335 -0.4618 -0.7203 -0.2646
   32POPC   C1D 1631   0.424   4.592   1.448 -0.0358 -0.1784  0.3530
   32POPC   C1E 1632   0.486   4.593   1.588 -0.6409 -0.0456  0.6229
   32POPC   C1F 1633   0.530   4.733   1.632 -0.0253 -0.0929  0.1738
   32POPC   C1G 1634   0.579   4.746   1.776 -0.0733  0.1187  0.1721
   32POPC   C1H 1635   0.607   4.890   1.816  0.1336 -0.0385  0.6012
   32POPC   C1I 1636   0.726   4.958   1.749 -0.7115  0.1689 -0.7257
   32POPC   C1J 1637   0.751   5.084   1.784  0.5055 -0.3502  0.3527
   32POPC   C1K 1638   0.661   5.162   1.880  0.4866  0.1540 -0.0676
   32POPC   C1L 1639   0.745   5.211   1.999 -0.1977  0.2732  0.3674
   32POPC   C1M 1640   0.660   5.286   2.102 -0.6542  0.3848 -0.0872
   32POPC   C1N 1641   0.756   5.317   2.216 -0.4032  0.8206 -0.4141
   32POPC   C1O 1642   0.877   5.397   2.169  0.1164  0.3867  0.1665
   32POPC   C1P 1643   0.975   5.423   2.284  0.1132 -0.2492  0.3141
   32POPC   C1Q 1644   1.096   5.508   2.246 -0.4874  0.3493 -0.2852
   32POPC   C1R 1645   1.159   5.574   2.369  0.0235 -0.4042 -0.1354
   32POPC    CE 1646   0.360   5.018   0.916  0.2395  0.0610 -0.0054
   32POPC    OG 1647   0.334   5.103   1.027  0.1289  0.3529 -0.2560
   32POPC   C2A 1648   0.232   5.187   1.008  0.3221  0.5107 -0.5999
   32POPC    OH 1649   0.168   5.189   0.903  0.3891  0.3705 -0.6432
   32POPC   C2B 1650   0.223   5.279   1.124  0.1848 -0.0922 -0.1308
   32POPC   C2C 1651   0.253   5.427   1.100  0.3740 -0.0283  0.4732
   32POPC   C2D 1652   0.216   5.522   1.213  0.6289 -0.3813  0.8560
   32POPC   C2E 1653   0.066   5.532   1.241  0.4692  0.4306 -0.2292
   32POPC   C2F 1654   0.013   5.609   1.362  0.2844 -0.1189  0.0434
   32POPC   C2G 1655   0.066   5.752   1.371  0.2581 -0.0968 -0.1440
   32POPC   C2H 1656   0.011   5.820   1.497 -0.2029  0.0089 -0.3994
   32POPC   C2I 1657   0.049   5.754   1.630 -0.3577 -0.0670 -0.3929
   32POPC   C2J 1658   0.001   5.836   1.751  0.3765 -0.2942  0.0578
   32POPC   C2K 1659   0.040   5.798   1.894  0.2920 -0.2031  0.1054
   32POPC   C2L 1660   6.227   5.887   1.989  0.1028 -0.1603 -0.0938
   32POPC   C2M 1661   6.241   6.039   1.979  0.4262 -0.1947 -0.1919
   32POPC   C2N 1662   6.190   6.102   2.109 -0.1719  0.0008 -0.5142
   32POPC   C2O 1663   6.244   6.242   2.138 -0.1474 -0.1578  0.2262
   32POPC   C2P 1664   0.120   6.246   2.193 -0.1542  0.3929  0.2111
   33POPC   CN1 1665   4.509   3.343   0.200 -0.2772  0.3278 -0.0896
   33POPC   CN2 1666   4.652   3.255   0.362 -0.0532  0.0211  0.2586
   33POPC   CN3 1667   4.722   3.230   0.139 -0.2435 -0.8246  0.2755
   33POPC   NTM 1668   4.603   3.232   0.225 -0.2429  0.4335  0.2563
   33POPC    CA 1669   4.539   3.100   0.224 -0.0848  0.3597 -0.0849
   33POPC    CB 1670   4.619   2.969   0.216 -0.4096  0.1802 -0.4244
   33POPC    OA 1671   4.730   2.951   0.304 -0.4515  0.1253 -0.3824
   33POPC     P 1672   4.770   2.796   0.322  0.2068  0.3338 -0.0088
   33POPC    OB 1673   4.884   2.791   0.416 -0.0121  0.1876  0.2527
   33POPC    OC 1674   4.770   2.735   0.187  0.1493 -0.0883  0.1795
   33POPC    OD 1675   4.646   2.729   0.400  0.5350 -0.2457  0.0232
   33POPC    CC 1676   4.630   2.776   0.535 -0.0998 -0.0050 -0.1305
   33POPC    CD 1677   4.499   2.843   0.576 -0.0828  0.0613 -0.1845
   33POPC    OE 1678   4.500   2.909   0.703 -0.3182  0.3243 -0.3188
   33POPC   C1A 1679   4.536   3.037   0.709  0.0874  0.1959 -0.0567
   33POPC    OF 1680   4.568   3.099   0.608 -0.3609  0.2836 -0.1443
   33POPC   C1B 1681   4.506   3.098   0.841 -0.2705  0.0197 -0.0552
   33POPC   C1C 1682   4.632   3.111   0.927 -0.1425  0.9591 -0.3627
   33POPC   C1D 1683   4.609   3.200   1.049  0.2252  0.0089  0.4204
   33POPC   C1E 1684   4.746   3.232   1.108  0.3054  0.7043 -0.1257
   33POPC   C1F 1685   4.732   3.307   1.240  0.1920 -0.1027  0.3295
   33POPC   C1G 1686   4.656   3.436   1.211  0.2616 -0.0501  0.3808
   33POPC   C1H 1687   4.628   3.523   1.334 -0.9541  0.0793  0.0310
   33POPC   C1I 1688   4.759   3.592   1.375 -0.5312 -0.9886  0.5021
   33POPC   C1J 1689   4.790   3.597   1.504  0.6622  0.2868  0.1858
   33POPC   C1K 1690   4.697   3.540   1.611  0.2486 -0.0807 -0.3606
   33POPC   C1L 1691   4.691   3.633   1.733 -0.0166 -0.6867  0.0962
   33POPC   C1M 1692   4.582   3.597   1.835 -0.0183 -0.0230  0.3374
   33POPC   C1N 1693   4.581   3.690   1.956 -0.1932 -0.2792  0.5344
   33POPC   C1O 1694   4.711   3.685   2.037  0.0427 -0.8133  0.1251
   33POPC   C1P 1695   4.692   3.735   2.180 -0.5521 -0.4422 -0.0791
   33POPC   C1Q 1696   4.824   3.694   2.247 -0.3059 -0.0931 -0.3453
   33POPC   C1R 1697   4.836   3.761   2.384 -0.3602 -0.4520 -0.1647
   33POPC    CE 1698   4.384   2.753   0.532 -0.0549  0.0757 -0.2878
   33POPC    OG 1699   4.381   2.634   0.612 -0.3495  0.4577  0.2756
   33POPC   C2A 1700   4.271   2.559   0.600 -0.1832  0.2926 -0.2239
   33POPC    OH 1701   4.229   2.544   0.485 -0.7586  0.2085 -0.0028
   33POPC   C2B 1702   4.264   2.473   0.719 -0.0909  0.4783 -0.0829
   33POPC   C2C 1703   4.213   2.547   0.843 -0.0448  0.0865  0.1727
   33POPC   C2D 1704   4.124   2.455   0.927  0.0321 -0.1257  0.0224
   33POPC   C2E 1705   4.105   2.519   1.065 -0.0324 -0.4145  0.1484
   33POPC   C2F 1706   3.984   2.611   1.083  0.2255 -0.0244 -0.0917
   33POPC   C2G 1707   3.976   2.636   1.234 -0.1924 -0.4316 -0.0460
   33POPC   C2H 1708   3.836   2.599   1.284 -0.0518 -0.2603  0.4815
   33POPC   C2I 1709   3.843   2.589   1.437 -0.3365 -0.1456  0.5034
   33POPC   C2J 1710   3.731   2.511   1.505 -0.6527 -0.1704 -0.0400
   33POPC   C2K 1711   3.769   2.524   1.652 -0.1588  0.0401 -0.1864
   33POPC   C2L 1712   3.660   2.482   1.751 -0.0558  0.1085 -0.0415
   33POPC   C2M 1713   3.559   2.595   1.769 -0.3111 -0.1553  0.1801
   33POPC   C2N 1714   3.447   2.524   1.846 -0.1751 -0.1727  0.3625
   33POPC   C2O 1715   3.316   2.603   1.838 -0.0949 -0.1207 -0.5073
   33POPC   C2P 1716   3.321   2.734   1.918 -0.1398 -0.5419  0.1947
   34POPC   CN1 1717   0.046   0.575   0.600 -0.2980  0.4694  0.2562
   34POPC   CN2 1718   6.217   0.772   0.497  0.3162  0.2684  0.5289
   34POPC   CN3 1719   6.096   0.573   0.489  0.1711 -0.0634  0.0377
   34POPC   NTM 1720   6.233   0.626   0.487  0.0398  0.2766 -0.0749
   34POPC    CA 1721   0.036   0.604   0.360 -0.7072  0.1403 -0.4652
   34POPC    CB 1722   0.080   0.468   0.304  0.0006  0.2283 -0.1221
   34POPC    OA 1723   6.243   0.372   0.288  0.3771 -0.1853 -0.1095
   34POPC     P 1724   0.038   0.239   0.222  0.0837 -0.3689 -0.0188
   34POPC    OB 1725   0.092   0.263   0.086 -0.3674 -0.7374 -0.2654
   34POPC    OC 1726   6.214   0.125   0.244 -0.0043 -0.2692  0.1324
   34POPC    OD 1727   0.169   0.223   0.314 -0.0626 -0.0286  0.2489
   34POPC    CC 1728   0.160   0.098   0.383  0.7319 -0.2594 -0.0632
   34POPC    CD 1729   0.271   0.094   0.489  0.0408 -0.0094  0.6768
   34POPC    OE 1730   0.328   6.262   0.512  0.0821 -0.1149 -0.0021
   34POPC   C1A 1731   0.455   6.262   0.551  0.1689 -0.4107 -0.2865
   34POPC    OF 1732   0.521   0.068   0.534 -0.1165 -0.2070 -0.1578
   34POPC   C1B 1733   0.504   6.134   0.607  0.2190 -0.3332 -0.1554
   34POPC   C1C 1734   0.617   6.138   0.711  0.0239 -0.4391  0.0629
   34POPC   C1D 1735   0.557   6.211   0.831  0.6804 -0.2286  0.2642
   34POPC   C1E 1736   0.663   6.254   0.933  0.6079  1.0560 -0.1835
   34POPC   C1F 1737   0.595   6.292   1.065  0.1908 -0.3277  0.0184
   34POPC   C1G 1738   0.697   0.040   1.169 -0.2196 -0.5327  0.5165
   34POPC   C1H 1739   0.810   6.237   1.195  0.7064  0.3523  0.0085
   34POPC   C1I 1740   0.906   6.282   1.305  0.2730  0.5553  0.3086
   34POPC   C1J 1741   0.898   6.247   1.433  0.2147  0.3990  0.2615
   34POPC   C1K 1742   0.796   6.151   1.494  0.6808 -0.0471  0.3413
   34POPC   C1L 1743   0.831   6.151   1.643 -0.2504  0.1108  0.5671
   34POPC   C1M 1744   0.815   6.287   1.712 -0.0310  0.2935  0.2614
   34POPC   C1N 1745   0.869   6.284   1.855  0.0368 -0.1811  0.2257
   34POPC   C1O 1746   0.886   0.133   1.897 -0.0898 -0.0657 -0.1158
   34POPC   C1P 1747   0.935   0.139   2.042  0.7304  0.0317 -0.3948
   34POPC   C1Q 1748   0.976   0.283   2.073  0.2180  0.1856 -0.4193
   34POPC   C1R 1749   0.986   0.321   2.221 -0.3033 -0.5705 -0.1836
   34POPC    CE 1750   0.216   0.174   0.607  0.5364 -0.1115  0.9782
   34POPC    OG 1751   0.111   0.115   0.684  0.1111  0.0695  0.5389
   34POPC   C2A 1752   0.048   0.192   0.773  0.1875  0.5257  0.2028
   34POPC    OH 1753   0.050   0.314   0.756 -0.6440  0.4023 -0.9389
   34POPC   C2B 1754   6.236   0.117   0.873 -0.0786 -0.3586 -0.6571
   34POPC   C2C 1755   6.191   0.185   1.002 -0.3179 -0.8555 -0.4750
   34POPC   C2D 1756   6.132   0.088   1.104  0.1190 -0.4009  0.2220
   34POPC   C2E 1757   6.035   0.162   1.196  0.1635 -0.0500 -0.0093
   34POPC   C2F 1758   6.112   0.235   1.306  0.2129 -0.7425  0.4243
   34POPC   C2G 1759   6.022   0.326   1.389  0.1775 -0.6260  0.2577
   34POPC   C2H 1760   6.106   0.427   1.468 -0.4811  0.0969  0.0481
   34POPC   C2I 1761   6.020   0.517   1.558 -0.1915  0.1879  0.2336
   34POPC   C2J 1762   5.935   0.441   1.660 -0.5978 -0.1843 -0.3728
   34POPC   C2K 1763   5.851   0.552   1.724  0.2461  0.1113  0.2492
   34POPC   C2L 1764   5.756   0.486   1.824 -0.4729 -0.0214 -0.5035
   34POPC   C2M 1765   5.665   0.578   1.905 -0.0906  0.0508 -0.1507
   34POPC   C2N 1766   5.742   0.685   1.984 -0.3639 -0.2163  0.4825
   34POPC   C2O 1767   5.638   0.733   2.085 -0.5102 -0.1460  0.3001
   34POPC   C2P 1768   5.533   0.827   2.026 -0.3798 -0.1776  0.0193
   35POPC   CN1 1769   0.008   4.413   0.220 -0.0104  0.6981 -0.6209
   35POPC   CN2 1770   6.212   4.602   0.328  0.0124 -0.0980  0.5258
   35POPC   CN3 1771   6.079   4.409   0.365  0.5386  0.1797  0.2623
   35POPC   NTM 1772   6.154   4.484   0.263 -0.0727  0.2909 -0.1098
   35POPC    CA 1773   6.069   4.513   0.146 -0.4101 -0.3130 -0.0231
   35POPC    CB 1774   5.933   4.569   0.188 -0.3155  0.0920 -0.2461
   35POPC    OA 1775   5.916   4.684   0.270  0.1214 -0.1675  0.2146
   35POPC     P 1776   5.768   4.701   0.332  0.1713 -0.0833  0.3116
   35POPC    OB 1777   5.683   4.621   0.241  0.3489  0.0724  0.0063
   35POPC    OC 1778   5.756   4.845   0.362 -0.1935  0.0437 -0.4155
   35POPC    OD 1779   5.792   4.615   0.466  0.1289 -0.3146  0.1712
   35POPC    CC 1780   5.785   4.694   0.585  0.6981  0.4514 -0.2925
   35POPC    CD 1781   5.816   4.632   0.721  0.2515  0.4640 -0.1817
   35POPC    OE 1782   5.775   4.726   0.820 -0.3661  0.0901 -0.0771
   35POPC   C1A 1783   5.758   4.684   0.945  0.3347 -0.1451 -0.0544
   35POPC    OF 1784   5.765   4.566   0.980  0.4833 -0.0907  0.1024
   35POPC   C1B 1785   5.710   4.791   1.036 -0.3328 -0.1174 -0.4319
   35POPC   C1C 1786   5.759   4.740   1.172 -0.5901  0.4194 -0.1390
   35POPC   C1D 1787   5.735   4.829   1.295 -0.0569  0.5263 -0.1088
   35POPC   C1E 1788   5.751   4.757   1.429  0.7097  0.4023 -0.2643
   35POPC   C1F 1789   5.882   4.792   1.500  0.4724  0.4388  0.1557
   35POPC   C1G 1790   5.928   4.679   1.592  0.2618  0.2458  0.0246
   35POPC   C1H 1791   6.042   4.734   1.678  0.1229  0.1008  0.3023
   35POPC   C1I 1792   6.090   4.612   1.757 -0.1631 -0.1300  0.1207
   35POPC   C1J 1793   6.211   4.605   1.812 -0.0950  0.3429  0.0357
   35POPC   C1K 1794   0.023   4.735   1.809  0.2479  0.1345  0.0203
   35POPC   C1L 1795   0.118   4.746   1.928 -0.2673 -0.1592  0.4579
   35POPC   C1M 1796   0.180   4.885   1.941  0.1183 -0.2792 -0.0998
   35POPC   C1N 1797   0.212   4.930   2.083  0.5582  0.1206 -0.3215
   35POPC   C1O 1798   0.337   4.866   2.143  0.2370 -0.3628 -0.1606
   35POPC   C1P 1799   0.377   4.948   2.266  0.5116  0.1064 -0.5608
   35POPC   C1Q 1800   0.482   4.870   2.346  0.0285  0.4495  0.4188
   35POPC   C1R 1801   0.632   4.884   2.321  0.0121 -0.1588 -0.0270
   35POPC    CE 1802   5.963   4.589   0.716  0.1945  0.2308  0.1023
   35POPC    OG 1803   6.062   4.693   0.710  0.1579  0.2712  0.2050
   35POPC   C2A 1804   6.188   4.675   0.673  0.0433  0.3513 -0.2288
   35POPC    OH 1805   6.217   4.562   0.632 -0.4445 -0.0084  0.3852
   35POPC   C2B 1806   0.002   4.797   0.690  0.9359 -0.3264  0.5294
   35POPC   C2C 1807   0.094   4.828   0.572  0.4180  0.1344  0.2411
   35POPC   C2D 1808   0.145   4.972   0.587 -0.0722  0.3225  0.1269
   35POPC   C2E 1809   0.208   5.014   0.454  0.3565 -0.0039  0.2255
   35POPC   C2F 1810   0.280   5.148   0.472 -0.5400  0.5550 -0.3296
   35POPC   C2G 1811   0.368   5.193   0.356  0.2294  0.1115  0.0784
   35POPC   C2H 1812   0.284   5.227   0.232 -0.0682 -0.2412  0.1817
   35POPC   C2I 1813   0.251   5.377   0.234  0.2093 -0.1762  0.0095
   35POPC   C2J 1814   0.159   5.419   0.120 -0.2945  0.0982  0.5146
   35POPC   C2K 1815   0.018   5.361   0.134 -0.1072 -0.3568  0.5342
   35POPC   C2L 1816   6.223   5.394   0.270 -0.1152  0.5948  0.3089
   35POPC   C2M 1817   6.095   5.311   0.279  0.1250  0.1270 -0.4368
   35POPC   C2N 1818   6.120   5.176   0.346 -0.1270  0.2632 -0.0624
   35POPC   C2O 1819   5.992   5.092   0.360  0.0134  0.1452  0.5517
   35POPC   C2P 1820   6.016   4.963   0.439  0.2655 -0.1768 -0.0410
   36POPC   CN1 1821   0.442   2.679   0.275  0.1311  0.1315  0.2094
   36POPC   CN2 1822   0.497   2.558   0.066  1.0120  0.2686 -0.5685
   36POPC   CN3 1823   0.679   2.644   0.208  0.1420  0.4709 -0.5120
   36POPC   NTM 1824   0.539   2.657   0.166 -0.0614  0.1194  0.0416
   36POPC    CA 1825   0.552   2.786   0.096  0.0698  0.0996  0.0299
   36POPC    CB 1826   0.444   2.886   0.053 -0.2509 -0.3789 -0.2788
   36POPC    OA 1827   0.326   2.816   0.012 -0.2426 -0.4259 -0.2229
   36POPC     P 1828   0.185   2.880   0.059  0.0918  0.1043  0.0676
   36POPC    OB 1829   0.066   2.810   0.006  0.2103  0.0559 -0.1363
   36POPC    OC 1830   0.209   3.023   0.033 -0.0253  0.2439  0.6994
   36POPC    OD 1831   0.195   2.848   0.217 -0.1972  0.2749  0.1203
   36POPC    CC 1832   0.073   2.894   0.275 -0.3896 -0.0700 -0.0079
   36POPC    CD 1833   0.059   2.885   0.427 -0.0919 -0.5839 -0.0079
   36POPC    OE 1834   6.204   2.926   0.490  0.0541  0.2856 -0.2794
   36POPC   C1A 1835   6.091   2.862   0.465 -0.0662  0.4687 -0.2063
   36POPC    OF 1836   6.088   2.793   0.364  0.0732  0.7304 -0.3899
   36POPC   C1B 1837   5.979   2.904   0.553  0.1305  0.2309  0.1611
   36POPC   C1C 1838   5.973   2.794   0.659 -0.6915  0.0919 -0.0200
   36POPC   C1D 1839   5.969   2.857   0.798 -0.2154  0.0260  0.0252
   36POPC   C1E 1840   5.973   2.760   0.917  0.7780 -0.2314 -0.2130
   36POPC   C1F 1841   5.971   2.833   1.051 -0.0368 -0.0804 -0.3054
   36POPC   C1G 1842   6.009   2.745   1.170  0.1270  0.1700 -0.1704
   36POPC   C1H 1843   6.007   2.832   1.296  0.5597 -0.5295  0.3251
   36POPC   C1I 1844   6.051   2.755   1.420 -0.4664 -0.3335  0.8185
   36POPC   C1J 1845   5.998   2.787   1.538 -0.2907 -0.1631  0.8512
   36POPC   C1K 1846   5.901   2.904   1.558  0.4400  0.6186 -0.0188
   36POPC   C1L 1847   5.817   2.884   1.685  0.1368  0.0112 -0.3091
   36POPC   C1M 1848   5.756   3.012   1.742 -0.3405 -0.4591  0.2508
   36POPC   C1N 1849   5.670   2.969   1.861 -0.0409 -0.2256  0.5535
   36POPC   C1O 1850   5.609   3.095   1.921 -0.0030  0.2036 -0.2955
   36POPC   C1P 1851   5.556   3.061   2.061 -0.2068 -0.7645 -0.6044
   36POPC   C1Q 1852   5.421   2.989   2.065 -0.4235 -0.3335 -0.0494
   36POPC   C1R 1853   5.294   3.067   2.034 -0.2414  0.3924  0.9800
   36POPC    CE 1854   0.191   2.946   0.475 -0.3217  0.0897 -0.2199
   36POPC    OG 1855   0.205   2.971   0.615  0.0701  0.0667 -0.2561
   36POPC   C2A 1856   0.175   3.096   0.650 -0.2250 -0.1203  0.1639
   36POPC    OH 1857   0.203   3.188   0.573 -0.3140 -0.0855  0.1726
   36POPC   C2B 1858   0.158   3.101   0.797 -0.1430  0.4510  0.1555
   36POPC   C2C 1859   0.011   3.063   0.817 -0.0637  0.1187  0.1146
   36POPC   C2D 1860   6.249   3.046   0.966 -0.2703  0.0783  0.0695
   36POPC   C2E 1861   6.213   3.186   1.017  0.0431  0.0802  0.2922
   36POPC   C2F 1862   6.144   3.194   1.153 -0.2356  0.1960  0.1447
   36POPC   C2G 1863   6.228   3.144   1.271 -0.0186  0.3519  0.0566
   36POPC   C2H 1864   6.155   3.182   1.400 -0.2592  0.5515 -0.1369
   36POPC   C2I 1865   6.191   3.325   1.439  0.2522  0.3028  0.3237
   36POPC   C2J 1866   6.104   3.370   1.557 -0.1063  0.2264  0.0915
   36POPC   C2K 1867   6.190   3.365   1.683  0.1566  0.1824 -0.0873
   36POPC   C2L 1868   6.113   3.378   1.815  0.3869 -0.1785  0.0855
   36POPC   C2M 1869   6.195   3.429   1.934 -0.0812  0.2678  0.2240
   36POPC   C2N 1870   6.124   3.397   2.065  0.2477 -0.8770  0.1403
   36POPC   C2O 1871   6.205   3.463   2.176 -0.1518 -0.0435 -0.0539
   36POPC   C2P 1872   6.129   3.500   2.304 -0.5343 -0.0977 -0.2646
   37POPC   CN1 1873   4.477   2.288   0.218  0.0885 -0.6637  0.4066
   37POPC   CN2 1874   4.702   2.353   0.245 -0.0008  0.0451  0.3081
   37POPC   CN3 1875   4.551   2.413   0.405 -0.0419 -0.4924  0.1574
   37POPC   NTM 1876   4.563   2.400   0.259 -0.1614 -0.3705  0.1364
   37POPC    CA 1877   4.547   2.523   0.181  0.1368 -0.5054 -0.1411
   37POPC    CB 1878   4.585   2.529   0.033  0.2474  0.1192 -0.0904
   37POPC    OA 1879   4.512   2.438   3.939  0.0746 -0.1865  0.3950
   37POPC     P 1880   4.602   2.370   3.825  0.0266  0.2751  0.0802
   37POPC    OB 1881   4.695   2.471   3.768  0.1040 -0.3488 -0.9284
   37POPC    OC 1882   4.512   2.293   3.737  0.2422 -0.3168  0.3728
   37POPC    OD 1883   4.680   2.265   3.919 -0.0187 -0.1438 -0.3405
   37POPC    CC 1884   4.666   2.132   3.871 -0.2639 -0.3243  0.2140
   37POPC    CD 1885   4.627   2.015   3.961 -0.1754 -0.6406 -0.1551
   37POPC    OE 1886   4.488   1.997   3.987 -0.2597  0.1270 -0.0769
   37POPC   C1A 1887   4.426   1.883   3.960 -0.0524 -0.1553  0.6041
   37POPC    OF 1888   4.461   1.819   3.861 -0.1709 -0.1709  0.5725
   37POPC   C1B 1889   4.287   1.881   0.022 -0.2241 -0.3331  0.1371
   37POPC   C1C 1890   4.194   1.789   3.931 -0.3093  0.0510 -0.2075
   37POPC   C1D 1891   4.093   1.720   0.033 -0.1356  0.5218  0.3525
   37POPC   C1E 1892   4.036   1.601   3.944  0.2753  0.5155  0.0635
   37POPC   C1F 1893   3.963   1.516   0.059  0.5997 -0.1658 -0.2579
   37POPC   C1G 1894   3.901   1.388   0.004 -0.1511  0.0858 -0.0098
   37POPC   C1H 1895   3.996   1.268   3.980  0.1904  0.3896 -0.3389
   37POPC   C1I 1896   3.919   1.154   3.915  0.1989 -0.0391  0.3911
   37POPC   C1J 1897   3.960   1.031   3.944  0.1133 -0.1971 -0.1412
   37POPC   C1K 1898   4.082   1.014   0.046 -0.4576 -0.1141  0.6589
   37POPC   C1L 1899   4.069   0.875   0.109 -0.5108 -0.2428  0.3681
   37POPC   C1M 1900   4.187   0.858   0.206  0.0705 -0.2297 -0.3222
   37POPC   C1N 1901   4.186   0.930   0.342 -0.1446 -0.3292 -0.2705
   37POPC   C1O 1902   4.318   0.908   0.416 -0.1313  0.1940 -0.1363
   37POPC   C1P 1903   4.306   0.977   0.552 -0.1184 -0.1978  0.0655
   37POPC   C1Q 1904   4.447   0.987   0.609  0.0887  0.0222 -0.4773
   37POPC   C1R 1905   4.450   1.039   0.753 -0.5242  0.2774 -0.5535
   37POPC    CE 1906   4.720   2.009   0.094  0.1283 -0.0376 -0.3537
   37POPC    OG 1907   4.711   1.903   0.190  0.1228  0.1750 -0.1202
   37POPC   C2A 1908   4.623   1.926   0.288  0.2495 -0.2233  0.0883
   37POPC    OH 1909   4.584   2.037   0.323 -0.2544 -0.4236  0.1812
   37POPC   C2B 1910   4.605   1.799   0.361  0.3986 -0.6460 -0.5966
   37POPC   C2C 1911   4.474   1.791   0.440  0.1349 -0.1421 -0.9788
   37POPC   C2D 1912   4.502   1.664   0.521  0.0069  0.3401 -0.1568
   37POPC   C2E 1913   4.387   1.627   0.614 -0.1884  0.2441 -0.4344
   37POPC   C2F 1914   4.408   1.493   0.684  0.2329  0.4594 -0.1486
   37POPC   C2G 1915   4.312   1.479   0.803  0.4402 -0.1142 -0.0450
   37POPC   C2H 1916   4.344   1.356   0.889 -0.1846 -0.0741  0.2415
   37POPC   C2I 1917   4.289   1.356   1.032 -0.8631 -0.3311 -0.0113
   37POPC   C2J 1918   4.324   1.222   1.097 -0.3009 -0.1737  0.0188
   37POPC   C2K 1919   4.251   1.203   1.230  0.0014  0.1600  0.2360
   37POPC   C2L 1920   4.213   1.055   1.234 -0.2935  0.2439  0.5071
   37POPC   C2M 1921   4.141   1.017   1.364 -0.7172  0.2283  0.2700
   37POPC   C2N 1922   4.015   1.097   1.399 -0.7752  0.2418  0.0282
   37POPC   C2O 1923   3.969   1.045   1.535 -0.5015 -0.0826 -0.0009
   37POPC   C2P 1924   3.877   1.137   1.616  0.2434  0.2070  0.5376
   38POPC   CN1 1925   2.929   1.926   0.118 -0.1950 -0.0917 -0.2531
   38POPC   CN2 1926   2.909   1.721   0.234  0.4830 -0.1684  0.3787
   38POPC   CN3 1927   3.128   1.802   0.188 -0.0386  0.0773  0.6771
   38POPC   NTM 1928   2.991   1.794   0.136  0.1082  0.1201  0.2769
   38POPC    CA 1929   2.990   1.718   0.010  0.2592  0.4793  0.0587
   38POPC    CB 1930   3.087   1.603   3.974  0.3889  0.4393  0.7374
   38POPC    OA 1931   3.089   1.505   0.090 -0.0805 -0.3454  0.0329
   38POPC     P 1932   3.232   1.433   0.071  0.0348 -0.0417 -0.2622
   38POPC    OB 1933   3.339   1.535   0.081 -0.3248  0.3599 -0.4619
   38POPC    OC 1934   3.230   1.337   3.946  0.0588  0.1880 -0.4571
   38POPC    OD 1935   3.242   1.348   0.207  0.5373  0.5296  0.0616
   38POPC    CC 1936   3.265   1.442   0.312 -0.3679  0.6621  0.1501
   38POPC    CD 1937   3.203   1.400   0.445 -0.4302 -0.3158 -0.1847
   38POPC    OE 1938   3.231   1.489   0.553 -0.5023 -0.5483  0.0265
   38POPC   C1A 1939   3.157   1.599   0.561  0.1659 -0.0881 -0.0590
   38POPC    OF 1940   3.056   1.616   0.494  0.0739  0.2237  0.1549
   38POPC   C1B 1941   3.198   1.688   0.673  0.3974 -0.7968  0.4299
   38POPC   C1C 1942   3.327   1.768   0.656 -0.2292  0.2190  0.3540
   38POPC   C1D 1943   3.314   1.854   0.530  0.4346 -0.0323  0.1085
   38POPC   C1E 1944   3.421   1.963   0.520  0.4045 -0.0184 -0.0695
   38POPC   C1F 1945   3.385   2.028   0.386  0.0463 -0.1746 -0.0512
   38POPC   C1G 1946   3.462   2.156   0.354  0.2368 -0.2858 -0.0425
   38POPC   C1H 1947   3.428   2.277   0.442  0.2073 -0.0198 -0.4199
   38POPC   C1I 1948   3.302   2.341   0.383 -0.2058 -0.1438  0.3280
   38POPC   C1J 1949   3.261   2.458   0.430  0.0009  0.0375  0.0545
   38POPC   C1K 1950   3.352   2.522   0.535 -0.1057 -0.1104  0.2381
   38POPC   C1L 1951   3.282   2.570   0.662  0.0636  0.5161  0.0975
   38POPC   C1M 1952   3.376   2.593   0.781 -0.0953 -0.1307  0.3487
   38POPC   C1N 1953   3.470   2.710   0.753 -0.3878  0.0080 -0.0719
   38POPC   C1O 1954   3.556   2.733   0.877 -0.4972 -1.0534  0.2056
   38POPC   C1P 1955   3.478   2.782   0.999  0.2772  0.0910  0.2571
   38POPC   C1Q 1956   3.565   2.777   1.125  0.1358 -0.3562  0.3395
   38POPC   C1R 1957   3.476   2.805   1.247  0.0792  0.2149  0.1667
   38POPC    CE 1958   3.248   1.255   0.463 -0.0616 -0.1135  0.5526
   38POPC    OG 1959   3.176   1.202   0.574  0.2067 -0.0837  0.7409
   38POPC   C2A 1960   3.241   1.106   0.640  0.5159  0.2249  0.8904
   38POPC    OH 1961   3.334   1.047   0.584 -0.1685 -0.0099 -0.0136
   38POPC   C2B 1962   3.177   1.082   0.771 -0.5291 -0.3682  0.2850
   38POPC   C2C 1963   3.212   0.944   0.827 -0.3554 -0.2670  0.4278
   38POPC   C2D 1964   3.160   0.920   0.969 -0.5039  0.0059  0.4192
   38POPC   C2E 1965   3.233   0.806   1.040 -0.1983 -0.0874 -0.0470
   38POPC   C2F 1966   3.380   0.837   1.070 -0.1541  0.0004 -0.3441
   38POPC   C2G 1967   3.387   0.942   1.181  0.0780 -0.5238  0.1434
   38POPC   C2H 1968   3.531   0.960   1.227  0.0482 -0.0890  0.0761
   38POPC   C2I 1969   3.570   0.835   1.308 -0.1470 -0.1790  0.0306
   38POPC   C2J 1970   3.714   0.788   1.295  0.0182  0.3221  0.0254
   38POPC   C2K 1971   3.773   0.766   1.156 -0.0607 -0.5930  0.1344
   38POPC   C2L 1972   3.925   0.745   1.164  0.0565  0.1456 -0.1120
   38POPC   C2M 1973   3.980   0.741   1.022  0.0979  0.0609 -0.0936
   38POPC   C2N 1974   4.130   0.709   1.032  0.0543 -0.2113 -0.3104
   38POPC   C2O 1975   4.193   0.719   0.893  0.0267  0.3393 -0.2841
   38POPC   C2P 1976   4.340   0.678   0.903 -0.2381 -0.5177  0.1655
   39POPC   CN1 1977   2.899   1.183   0.436  0.7619  0.1904 -0.1486
   39POPC   CN2 1978   2.726   1.341   0.407  0.1118 -0.5608  0.0836
   39POPC   CN3 1979   2.726   1.129   0.285  0.1253 -0.3774  0.0370
   39POPC   NTM 1980   2.807   1.240   0.336  0.2116 -0.4223 -0.0005
   39POPC    CA 1981   2.891   1.293   0.229  0.1354  0.3617  0.3214
   39POPC    CB 1982   2.829   1.347   0.099 -0.9057 -0.1341  0.6040
   39POPC    OA 1983   2.786   1.481   0.120 -0.1507  0.1997  0.0881
   39POPC     P 1984   2.693   1.520   3.983  0.0597  0.0689 -0.1077
   39POPC    OB 1985   2.586   1.421   0.018  0.1603 -0.0253 -0.0429
   39POPC    OC 1986   2.783   1.526   3.865  0.3064 -0.6478  0.0394
   39POPC    OD 1987   2.664   1.676   0.019  0.1819  0.0751  0.0006
   39POPC    CC 1988   2.532   1.672   0.075  0.2163  0.4687  0.1172
   39POPC    CD 1989   2.453   1.802   0.089 -0.0062  0.3661 -0.1673
   39POPC    OE 1990   2.395   1.864   3.962  0.1890 -0.0555 -0.4943
   39POPC   C1A 1991   2.285   1.804   3.917 -0.2169  0.0681  0.3178
   39POPC    OF 1992   2.281   1.681   3.921  0.5228  0.0244  0.0004
   39POPC   C1B 1993   2.203   1.888   3.827  0.3890 -0.0359 -0.3415
   39POPC   C1C 1994   2.061   1.906   3.881  0.3265  0.0162 -0.5221
   39POPC   C1D 1995   2.082   2.000   0.011 -0.0260 -0.5615  0.0052
   39POPC   C1E 1996   1.989   1.957   0.125  0.0465  0.2042  0.3581
   39POPC   C1F 1997   2.010   1.814   0.174  0.0039 -0.0146 -0.2532
   39POPC   C1G 1998   1.917   1.785   0.292 -0.1252 -0.2756 -0.4166
   39POPC   C1H 1999   1.965   1.685   0.397  0.2898  0.0461 -0.2977
   39POPC   C1I 2000   1.842   1.626   0.466  0.3215 -0.1606 -0.4151
   39POPC   C1J 2001   1.839   1.530   0.558  0.1155 -0.0399 -0.2965
   39POPC   C1K 2002   1.963   1.458   0.610 -0.0655 -0.0659  0.1032
   39POPC   C1L 2003   1.947   1.403   0.752 -0.1807  0.4782  0.3029
   39POPC   C1M 2004   2.069   1.323   0.798 -0.2309  0.3833  0.2708
   39POPC   C1N 2005   2.052   1.236   0.923  0.2326 -0.0673  0.0255
   39POPC   C1O 2006   2.189   1.199   0.980  0.2044  0.3347  0.3550
   39POPC   C1P 2007   2.178   1.138   1.120 -0.1952  0.0148  0.1872
   39POPC   C1Q 2008   2.122   0.996   1.112  0.2124 -0.1206 -0.3662
   39POPC   C1R 2009   2.135   0.933   1.251 -0.5493  0.4800 -0.0098
   39POPC    CE 2010   2.536   1.893   0.180  0.3721 -0.0898 -0.0554
   39POPC    OG 2011   2.560   1.846   0.313 -0.1879  0.1836  0.1459
   39POPC   C2A 2012   2.640   1.919   0.390  0.2655 -0.1598  0.0011
   39POPC    OH 2013   2.743   1.965   0.339  0.3206 -0.4660 -0.1676
   39POPC   C2B 2014   2.626   1.899   0.536 -0.2137  0.0037 -0.0217
   39POPC   C2C 2015   2.691   1.769   0.582 -0.5170 -0.1925 -0.1487
   39POPC   C2D 2016   2.730   1.774   0.730 -0.2240  0.6038 -0.2539
   39POPC   C2E 2017   2.819   1.656   0.768 -0.2016  0.7089  0.0174
   39POPC   C2F 2018   2.853   1.662   0.917 -0.0895  0.2978  0.0086
   39POPC   C2G 2019   2.939   1.540   0.954 -0.4534 -0.2247 -0.8331
   39POPC   C2H 2020   2.984   1.539   1.101  0.1560 -0.3743 -1.0177
   39POPC   C2I 2021   3.028   1.402   1.152  0.6375  0.1257 -0.0757
   39POPC   C2J 2022   3.044   1.397   1.304  0.5685 -0.0450 -0.0740
   39POPC   C2K 2023   3.086   1.259   1.355 -0.1107 -0.1444  0.2293
   39POPC   C2L 2024   3.226   1.267   1.415  0.0587 -0.1016 -0.1698
   39POPC   C2M 2025   3.240   1.351   1.542  0.2996 -0.1672 -0.1520
   39POPC   C2N 2026   3.363   1.316   1.626 -0.3592  0.0637  0.9263
   39POPC   C2O 2027   3.417   1.440   1.698  0.2083  0.6428 -0.4492
   39POPC   C2P 2028   3.563   1.415   1.736  0.0449  0.4987  0.1082
   40POPC   CN1 2029   5.676   0.638   0.477 -0.1054 -0.1490 -0.7706
   40POPC   CN2 2030   5.599   0.439   0.380  0.2274 -0.6318 -0.9745
   40POPC   CN3 2031   5.704   0.595   0.238  0.2182 -0.1100 -0.1318
   40POPC   NTM 2032   5.616   0.582   0.355 -0.2626 -0.4945 -0.5369
   40POPC    CA 2033   5.480   0.633   0.328 -0.1058  0.7664  0.9262
   40POPC    CB 2034   5.466   0.777   0.279 -0.6689  0.2929 -0.3310
   40POPC    OA 2035   5.527   0.878   0.358 -0.7677  0.0407  0.0690
   40POPC     P 2036   5.560   1.014   0.279  0.2843 -0.1223  0.2103
   40POPC    OB 2037   5.515   1.129   0.360  0.5186 -0.3897  0.7254
   40POPC    OC 2038   5.529   1.009   0.134  0.0939  0.6690  0.2186
   40POPC    OD 2039   5.720   0.996   0.292  0.3647  0.0969 -0.4257
   40POPC    CC 2040   5.779   1.057   0.407 -0.0470  0.5305 -0.4389
   40POPC    CD 2041   5.930   1.065   0.385 -0.0251  0.4547 -0.3143
   40POPC    OE 2042   6.011   1.096   0.499  0.0341 -0.1690 -0.1834
   40POPC   C1A 2043   5.997   1.020   0.608 -0.0123 -0.3233 -0.2972
   40POPC    OF 2044   5.958   0.904   0.595 -0.2449 -0.4090  1.0775
   40POPC   C1B 2045   6.068   1.064   0.730 -0.2170 -0.1171 -0.2517
   40POPC   C1C 2046   6.043   1.210   0.766 -0.2827 -0.2674  0.3191
   40POPC   C1D 2047   6.125   1.260   0.885 -0.1814 -0.0609  0.1631
   40POPC   C1E 2048   6.106   1.411   0.900  0.5435  0.1051 -0.4924
   40POPC   C1F 2049   6.242   1.464   0.945  0.4229  0.0180 -0.0160
   40POPC   C1G 2050   6.230   1.617   0.951  0.4467  0.0253 -0.1447
   40POPC   C1H 2051   0.040   1.664   1.075  0.6773 -0.3114 -0.1592
   40POPC   C1I 2052   0.062   1.815   1.065 -0.3102 -0.1138  0.5697
   40POPC   C1J 2053   0.035   1.892   1.170 -0.3481  0.0338  0.4527
   40POPC   C1K 2054   6.228   1.854   1.299  0.2182 -0.3914  0.6588
   40POPC   C1L 2055   6.151   1.977   1.347  0.1807 -0.1827  0.0792
   40POPC   C1M 2056   6.091   1.941   1.483 -0.1963  0.4135  0.0761
   40POPC   C1N 2057   6.006   2.048   1.551  0.2812  0.8265  0.0268
   40POPC   C1O 2058   5.999   2.025   1.703  0.3146  0.4267 -0.0307
   40POPC   C1P 2059   5.879   2.097   1.765 -0.0138  0.0140 -0.1793
   40POPC   C1Q 2060   5.740   2.062   1.712  0.0662 -0.4387 -0.0910
   40POPC   C1R 2061   5.708   1.916   1.746  0.2316 -0.2275  1.0356
   40POPC    CE 2062   5.959   1.153   0.264 -0.2566  0.8962 -0.0492
   40POPC    OG 2063   5.910   1.287   0.275 -0.3072  0.8384  0.4491
   40POPC   C2A 2064   6.004   1.380   0.290  0.5925  0.1081 -0.5452
   40POPC    OH 2065   6.121   1.345   0.308  0.5337  0.2783  0.2092
   40POPC   C2B 2066   5.948   1.515   0.314  0.1033 -0.2008  0.0891
   40POPC   C2C 2067   5.931   1.549   0.462 -0.0781  0.5170 -0.0914
   40POPC   C2D 2068   5.800   1.484   0.510 -0.3324  0.9443 -0.2069
   40POPC   C2E 2069   5.764   1.538   0.648  0.2702  0.1654  0.2596
   40POPC   C2F 2070   5.629   1.489   0.700  0.3490  0.0897  0.3927
   40POPC   C2G 2071   5.612   1.535   0.845 -0.0320 -0.4746  0.5304
   40POPC   C2H 2072   5.465   1.533   0.887 -0.0126  0.7174  0.6822
   40POPC   C2I 2073   5.426   1.568   1.030  0.0351  0.2876  0.8019
   40POPC   C2J 2074   5.273   1.581   1.036 -0.0667 -0.6202  0.3432
   40POPC   C2K 2075   5.234   1.622   1.178 -0.0037  0.1915  0.1337
   40POPC   C2L 2076   5.089   1.670   1.170  0.0827  0.5577  0.6775
   40POPC   C2M 2077   5.019   1.714   1.299 -1.2349  0.3112  0.0682
   40POPC   C2N 2078   5.030   1.593   1.392 -0.3386  0.4079  0.1015
   40POPC   C2O 2079   4.943   1.600   1.517 -0.2206 -0.1714  0.2169
   40POPC   C2P 2080   4.960   1.465   1.588  0.1372 -0.1424  0.1883
   41POPC   CN1 2081   5.754   5.085   0.712  0.2256 -0.2240 -0.5076
   41POPC   CN2 2082   5.565   5.225   0.738  0.1039 -0.2578 -0.1977
   41POPC   CN3 2083   5.549   4.991   0.762  0.2156  0.2568  0.1761
   41POPC   NTM 2084   5.610   5.097   0.681  0.2022 -0.1479 -0.3690
   41POPC    CA 2085   5.589   5.070   0.538 -0.6444 -0.3763 -0.2011
   41POPC    CB 2086   5.624   5.173   0.431 -0.2435 -0.3422 -0.0377
   41POPC    OA 2087   5.553   5.295   0.454  0.4784  0.1137 -0.1873
   41POPC     P 2088   5.581   5.405   0.340  0.1284  0.1940 -0.1996
   41POPC    OB 2089   5.483   5.515   0.346  0.4007  0.4285 -0.0422
   41POPC    OC 2090   5.606   5.335   0.212 -0.1483  0.1510 -0.2294
   41POPC    OD 2091   5.723   5.460   0.394 -0.0380  0.0275  0.4093
   41POPC    CC 2092   5.707   5.569   0.485  0.0767  0.3380  0.0604
   41POPC    CD 2093   5.832   5.587   0.570  0.0277  0.4312  0.1139
   41POPC    OE 2094   5.816   5.645   0.700  0.5136  0.7233  0.0453
   41POPC   C1A 2095   5.810   5.560   0.802  0.3826  0.2092 -0.3850
   41POPC    OF 2096   5.797   5.439   0.789 -0.6944  0.2360  0.2644
   41POPC   C1B 2097   5.833   5.634   0.929 -0.0104 -0.2915 -0.0200
   41POPC   C1C 2098   5.693   5.645   0.991 -0.1772  1.0973 -0.6105
   41POPC   C1D 2099   5.690   5.715   1.127 -0.9317  0.3376 -0.2311
   41POPC   C1E 2100   5.763   5.626   1.228 -0.1716  0.7068 -0.4497
   41POPC   C1F 2101   5.775   5.694   1.364 -0.5606 -0.0610 -0.0262
   41POPC   C1G 2102   5.880   5.638   1.462  0.4936  0.9251 -0.5706
   41POPC   C1H 2103   5.877   5.715   1.594 -0.2367  0.2337 -0.1746
   41POPC   C1I 2104   5.914   5.640   1.722  1.1188  0.2657 -0.5331
   41POPC   C1J 2105   5.899   5.684   1.846 -0.6629  0.1616 -0.6875
   41POPC   C1K 2106   5.860   5.831   1.863 -0.1837  0.1769  0.3856
   41POPC   C1L 2107   5.798   5.851   2.001  0.1532 -0.0168  0.5656
   41POPC   C1M 2108   5.752   5.996   2.019 -0.5104 -0.0920 -0.4497
   41POPC   C1N 2109   5.710   6.015   2.165 -0.3486 -0.0651 -0.4067
   41POPC   C1O 2110   5.649   6.153   2.189 -0.1434 -0.1063  0.3668
   41POPC   C1P 2111   5.623   6.164   2.340  0.3656 -0.1517  0.4575
   41POPC   C1Q 2112   5.588   0.010   2.379  0.2415 -0.1182  0.2214
   41POPC   C1R 2113   5.711   0.100   2.380  0.2238 -0.0894 -0.0230
   41POPC    CE 2114   5.928   5.661   0.477  0.3749 -0.4751 -0.2622
   41POPC    OG 2115   5.880   5.790   0.436  0.4096 -0.4163 -0.1163
   41POPC   C2A 2116   5.952   5.863   0.352  1.1425 -0.0656  0.7975
   41POPC    OH 2117   6.018   5.803   0.267  0.0685 -0.1859  0.0298
   41POPC   C2B 2118   5.908   6.004   0.338 -0.5128 -0.6657 -0.3261
   41POPC   C2C 2119   5.775   6.039   0.270 -0.6226  0.1903  0.3016
   41POPC   C2D 2120   5.656   6.044   0.365 -0.8641 -0.4600  0.0478
   41POPC   C2E 2121   5.680   6.150   0.474  0.1332 -0.7030  0.0788
   41POPC   C2F 2122   5.578   6.118   0.584  0.0748 -0.1461  0.1885
   41POPC   C2G 2123   5.640   6.120   0.724 -0.1770  0.1242  0.2969
   41POPC   C2H 2124   5.533   6.076   0.824 -0.3399  0.4360  0.2630
   41POPC   C2I 2125   5.559   6.137   0.962  0.3869 -0.6089  0.6023
   41POPC   C2J 2126   5.458   6.073   1.057 -0.4341  0.1901  0.2816
   41POPC   C2K 2127   5.459   6.106   1.207 -0.3583 -0.1228  0.3508
   41POPC   C2L 2128   5.320   6.110   1.269 -0.3151 -0.8189  0.5042
   41POPC   C2M 2129   5.335   6.142   1.418  0.2214 -0.0867  0.3004
   41POPC   C2N 2130   5.394   6.016   1.483  0.3453 -0.1156  0.1315
   41POPC   C2O 2131   5.401   6.030   1.635  0.8668  0.4765  0.0542
   41POPC   C2P 2132   5.469   5.904   1.688 -0.3787  0.2048  1.0514
   42POPC   CN1 2133   3.412   0.916   3.743 -0.0290 -0.0205  0.0679
   42POPC   CN2 2134   3.593   0.852   3.867 -0.0865 -0.4438  0.0157
   42POPC   CN3 2135   3.379   0.749   3.912 -0.0452 -0.5226 -0.1592
   42POPC   NTM 2136   3.449   0.875   3.880 -0.0957 -0.4666 -0.0485
   42POPC    CA 2137   3.429   0.985   3.975  0.2363 -0.1877 -0.3017
   42POPC    CB 2138   3.291   1.047   0.003  0.3520  0.1238 -0.5011
   42POPC    OA 2139   3.183   0.953   3.982  0.0906  0.3951 -0.2485
   42POPC     P 2140   3.040   0.991   3.919 -0.0351  0.0157 -0.1941
   42POPC    OB 2141   3.051   1.006   3.772  0.4780 -0.1017 -0.1698
   42POPC    OC 2142   2.943   1.073   0.007 -0.2362 -0.0974 -0.3266
   42POPC    OD 2143   2.973   0.845   3.929  0.0203  0.0181  0.2347
   42POPC    CC 2144   2.916   0.810   0.067  0.1275 -0.4056  0.1685
   42POPC    CD 2145   2.930   0.668   0.122  0.3325 -0.5917 -0.3610
   42POPC    OE 2146   2.834   0.640   0.224  0.1251  0.0260 -0.3823
   42POPC   C1A 2147   2.765   0.530   0.195 -0.9309  0.5171  0.2184
   42POPC    OF 2148   2.720   0.492   0.087 -0.1065 -0.7042  0.2804
   42POPC   C1B 2149   2.745   0.448   0.317 -0.2376 -0.1702 -0.1266
   42POPC   C1C 2150   2.851   0.337   0.323 -0.3161 -0.2204  0.4331
   42POPC   C1D 2151   2.970   0.375   0.411 -0.2222 -0.2929  0.3377
   42POPC   C1E 2152   3.075   0.265   0.389 -0.2665 -0.2466 -0.1026
   42POPC   C1F 2153   3.139   0.222   0.521  0.4066  0.0838 -0.3154
   42POPC   C1G 2154   3.227   0.099   0.497  0.5034  0.1311 -0.2035
   42POPC   C1H 2155   3.291   0.052   0.628  0.3013 -0.1829 -0.2177
   42POPC   C1I 2156   3.308   6.197   0.628 -0.1214 -0.2324  0.1919
   42POPC   C1J 2157   3.418   6.147   0.684  0.1388  0.1862  0.0543
   42POPC   C1K 2158   3.520   6.243   0.746  0.1624  0.2238 -0.0413
   42POPC   C1L 2159   3.626   6.162   0.822  0.5903  0.4971 -0.3473
   42POPC   C1M 2160   3.699   6.235   0.935  0.8502 -0.4068  0.0730
   42POPC   C1N 2161   3.813   6.154   0.997  0.3843 -0.6270  0.6593
   42POPC   C1O 2162   3.861   6.225   1.123 -0.6540  0.4829  0.4426
   42POPC   C1P 2163   3.955   6.137   1.205 -0.0778  0.5456 -0.1453
   42POPC   C1Q 2164   3.996   6.214   1.330  0.1471  0.6901 -0.3090
   42POPC   C1R 2165   3.872   6.237   1.416 -0.0399  0.1327 -0.4298
   42POPC    CE 2166   3.075   0.654   0.168  0.2579 -0.9904 -0.2426
   42POPC    OG 2167   3.120   0.719   0.287 -0.7057  0.0756 -0.4354
   42POPC   C2A 2168   3.250   0.709   0.314 -0.8242 -0.0134  0.1257
   42POPC    OH 2169   3.326   0.682   0.220 -0.4952 -0.5053  0.5292
   42POPC   C2B 2170   3.282   0.759   0.450  0.3633 -0.1693 -0.0791
   42POPC   C2C 2171   3.289   0.634   0.538 -0.3963  0.0663  0.3235
   42POPC   C2D 2172   3.404   0.648   0.639 -0.2215 -0.1333  0.1505
   42POPC   C2E 2173   3.432   0.509   0.697  0.2603 -0.1289 -0.0700
   42POPC   C2F 2174   3.539   0.530   0.805 -0.1693  0.3871  0.2583
   42POPC   C2G 2175   3.585   0.397   0.864 -0.6750  0.3316  0.5298
   42POPC   C2H 2176   3.694   0.426   0.967  0.2643  0.1636 -0.3993
   42POPC   C2I 2177   3.742   0.290   1.016  0.1034  0.0601 -0.5274
   42POPC   C2J 2178   3.833   0.287   1.139 -0.2438  0.1570 -0.2643
   42POPC   C2K 2179   3.783   0.361   1.263  0.5047  0.2557 -0.0144
   42POPC   C2L 2180   3.654   0.310   1.326  0.8986 -0.5752  0.1275
   42POPC   C2M 2181   3.641   0.373   1.465  0.2190 -0.1906 -0.1029
   42POPC   C2N 2182   3.504   0.346   1.529  0.1221 -0.3902 -0.3912
   42POPC   C2O 2183   3.405   0.444   1.465  0.2609  0.2015  0.2793
   42POPC   C2P 2184   3.264   0.460   1.521  0.1793 -0.3241  0.2363
   43POPC   CN1 2185   0.818   1.884   0.041  0.0737  0.3890 -0.3691
   43POPC   CN2 2186   0.831   1.929   3.789  0.0550  0.0054 -0.3098
   43POPC   CN3 2187   0.973   1.771   3.893 -0.0019  0.0461  0.4856
   43POPC   NTM 2188   0.905   1.900   3.912  0.1676  0.2568 -0.3184
   43POPC    CA 2189   1.010   2.001   3.936  0.5563 -0.0848 -0.5754
   43POPC    CB 2190   0.987   2.152   3.929 -0.0820 -0.1429  0.1450
   43POPC    OA 2191   0.875   2.187   0.021 -0.0868  0.1361  0.0181
   43POPC     P 2192   0.880   2.344   0.058  0.2021  0.1853 -0.2265
   43POPC    OB 2193   0.866   2.413   3.917 -0.3256  0.3442 -0.0883
   43POPC    OC 2194   1.000   2.372   0.139  0.1087  0.1456 -0.0728
   43POPC    OD 2195   0.747   2.355   0.149 -0.1612 -1.0414 -0.5831
   43POPC    CC 2196   0.736   2.266   0.260  0.0837 -0.2634  0.0702
   43POPC    CD 2197   0.639   2.291   0.376 -0.0740 -0.0087 -0.1161
   43POPC    OE 2198   0.510   2.348   0.351  0.0632  0.0018 -0.8283
   43POPC   C1A 2199   0.413   2.267   0.311 -0.0221 -0.4960  0.3276
   43POPC    OF 2200   0.436   2.149   0.285  0.1582 -0.4889  0.4530
   43POPC   C1B 2201   0.287   2.343   0.292  0.2780 -0.0161  0.2281
   43POPC   C1C 2202   0.161   2.287   0.359  0.2815 -0.3224 -0.0219
   43POPC   C1D 2203   0.072   2.402   0.405  0.1655 -0.3581 -0.1535
   43POPC   C1E 2204   6.197   2.350   0.427 -0.0091 -0.0074 -0.4508
   43POPC   C1F 2205   6.165   2.407   0.566  0.1692 -0.5219 -0.1977
   43POPC   C1G 2206   6.223   2.320   0.678  0.0416 -0.0087  0.2720
   43POPC   C1H 2207   6.190   2.387   0.811 -0.3965 -0.1353  0.2294
   43POPC   C1I 2208   6.224   2.281   0.916  0.2649 -0.3355 -0.1809
   43POPC   C1J 2209   6.155   2.268   1.029  0.0986 -0.4972 -0.3010
   43POPC   C1K 2210   6.052   2.380   1.044 -0.3635 -0.9740  0.1349
   43POPC   C1L 2211   5.967   2.360   1.169 -0.4865 -0.5451  0.1197
   43POPC   C1M 2212   5.887   2.232   1.190 -0.1330 -0.7886 -0.0060
   43POPC   C1N 2213   5.798   2.243   1.315 -0.1044  0.6614 -0.0997
   43POPC   C1O 2214   5.705   2.364   1.309 -0.6601  0.2613  0.3804
   43POPC   C1P 2215   5.617   2.378   1.434 -0.2388  0.0944  0.7002
   43POPC   C1Q 2216   5.705   2.410   1.555  0.3662 -0.0456  0.3041
   43POPC   C1R 2217   5.726   2.561   1.563  0.8927 -0.1245  0.4035
   43POPC    CE 2218   0.728   2.361   0.479 -0.1951 -0.0557  0.0204
   43POPC    OG 2219   0.674   2.410   0.602  0.2860  0.2071  0.1258
   43POPC   C2A 2220   0.621   2.532   0.600 -1.0467 -0.3651 -0.3900
   43POPC    OH 2221   0.651   2.615   0.514 -0.3352  0.0766  0.2672
   43POPC   C2B 2222   0.535   2.548   0.719 -0.4311 -0.8262  0.1274
   43POPC   C2C 2223   0.399   2.607   0.678 -0.4156 -0.3971  0.6775
   43POPC   C2D 2224   0.307   2.590   0.799 -0.6912 -0.4703  0.4573
   43POPC   C2E 2225   0.349   2.680   0.915  0.3920 -0.4551  0.0670
   43POPC   C2F 2226   0.249   2.664   1.030  0.4433 -0.3590  0.1250
   43POPC   C2G 2227   0.235   2.784   1.124  0.3362  0.3313 -0.7548
   43POPC   C2H 2228   0.358   2.821   1.206  0.1308 -0.0136 -0.2809
   43POPC   C2I 2229   0.404   2.713   1.304 -0.7186 -0.0103  0.1263
   43POPC   C2J 2230   0.552   2.693   1.339 -0.4550  0.6676 -0.5778
   43POPC   C2K 2231   0.650   2.657   1.227  0.0828 -0.0525  0.1144
   43POPC   C2L 2232   0.626   2.514   1.177  0.5983 -0.0096 -0.2590
   43POPC   C2M 2233   0.743   2.494   1.080  0.1990  0.0548 -0.7626
   43POPC   C2N 2234   0.748   2.358   1.012  0.0283 -0.1366 -0.3963
   43POPC   C2O 2235   0.862   2.359   0.910  0.4859  0.0494  0.1133
   43POPC   C2P 2236   0.877   2.224   0.839  0.0250  0.0268  0.0541
   44POPC   CN1 2237   2.648   3.898   0.252  0.1411 -0.4166  0.3079
   44POPC   CN2 2238   2.427   3.892   0.143 -0.4318 -0.2013 -0.2489
   44POPC   CN3 2239   2.518   3.704   0.245 -0.8393  0.4276 -0.0770
   44POPC   NTM 2240   2.555   3.823   0.167 -0.2046  0.3137  0.0377
   44POPC    CA 2241   2.617   3.798   0.036 -0.2166  0.0396  0.0843
   44POPC    CB 2242   2.704   3.676   0.006 -0.6973 -0.3595  0.2957
   44POPC    OA 2243   2.823   3.657   0.083 -0.2538  0.2254 -0.2397
   44POPC     P 2244   2.888   3.512   0.059  0.0445  0.3150  0.0258
   44POPC    OB 2245   3.035   3.522   0.072  0.1001 -0.4125 -0.0135
   44POPC    OC 2246   2.832   3.462   3.920  0.0355  0.6371 -0.0970
   44POPC    OD 2247   2.823   3.447   0.192  0.2584  0.4244  0.1850
   44POPC    CC 2248   2.897   3.507   0.298  0.2488  0.2512  0.2894
   44POPC    CD 2249   2.828   3.506   0.435 -0.6136 -0.1380 -0.1454
   44POPC    OE 2250   2.894   3.589   0.531 -0.2802 -0.1796 -0.3361
   44POPC   C1A 2251   2.834   3.706   0.545  0.0420 -0.0033 -0.4161
   44POPC    OF 2252   2.741   3.738   0.471 -0.2695 -0.2887 -0.1498
   44POPC   C1B 2253   2.906   3.786   0.647 -0.2684  0.5998 -0.6601
   44POPC   C1C 2254   2.907   3.933   0.607 -0.4953  0.6251 -0.5690
   44POPC   C1D 2255   2.917   4.044   0.713  0.2415 -0.0025  0.0339
   44POPC   C1E 2256   2.821   4.017   0.829  0.6052  0.0082  0.3382
   44POPC   C1F 2257   2.839   4.125   0.935  0.2031  0.4881 -0.0809
   44POPC   C1G 2258   2.963   4.115   1.023 -0.1250 -0.0082  0.3256
   44POPC   C1H 2259   2.949   4.207   1.145  0.3177  0.2587  0.1790
   44POPC   C1I 2260   3.083   4.232   1.213  0.0357  0.3928  0.6945
   44POPC   C1J 2261   3.085   4.263   1.342  0.0925  0.2176  0.7369
   44POPC   C1K 2262   2.957   4.270   1.426 -0.2100 -0.7705  0.3656
   44POPC   C1L 2263   2.996   4.251   1.573  0.3781 -0.1835  0.2915
   44POPC   C1M 2264   2.924   4.353   1.661  0.2370  0.1705 -0.2247
   44POPC   C1N 2265   2.946   4.307   1.806  0.0382  0.1442 -0.2027
   44POPC   C1O 2266   2.912   4.426   1.895  0.5129  0.3961 -0.3524
   44POPC   C1P 2267   2.768   4.418   1.947  0.6087 -0.1523 -0.1644
   44POPC   C1Q 2268   2.703   4.546   2.000  0.6131 -0.1315 -0.2099
   44POPC   C1R 2269   2.566   4.512   2.058  0.3419  0.3312 -0.5692
   44POPC    CE 2270   2.805   3.360   0.475 -0.2822 -0.1435  0.0268
   44POPC    OG 2271   2.701   3.344   0.571  0.1504 -0.1929  0.4907
   44POPC   C2A 2272   2.643   3.224   0.570 -0.0853 -0.0747 -0.1948
   44POPC    OH 2273   2.620   3.164   0.465  0.1046  0.4190 -0.5257
   44POPC   C2B 2274   2.563   3.213   0.693  0.0286  0.6591 -0.0503
   44POPC   C2C 2275   2.650   3.138   0.794 -0.4282 -0.0307 -0.1551
   44POPC   C2D 2276   2.595   3.131   0.937  0.4150  0.3250  0.1959
   44POPC   C2E 2277   2.700   3.069   1.029  0.2240 -0.1577  0.0886
   44POPC   C2F 2278   2.642   3.037   1.167 -0.1788  0.0205 -0.0377
   44POPC   C2G 2279   2.745   2.987   1.269 -0.2871  0.1473  0.1343
   44POPC   C2H 2280   2.665   2.935   1.389 -0.4981 -0.2010 -0.1532
   44POPC   C2I 2281   2.752   2.904   1.511 -0.2263 -0.1384 -0.3300
   44POPC   C2J 2282   2.659   2.836   1.612  0.3901  0.0667  0.3886
   44POPC   C2K 2283   2.726   2.776   1.735  0.5246 -0.2054  0.1839
   44POPC   C2L 2284   2.631   2.764   1.855 -0.1558  0.6061 -0.2695
   44POPC   C2M 2285   2.698   2.664   1.948 -0.6220 -0.0509 -0.6260
   44POPC   C2N 2286   2.614   2.587   2.051  0.1837 -0.2388 -0.0916
   44POPC   C2O 2287   2.590   2.665   2.180 -0.2412 -0.0498 -0.2828
   44POPC   C2P 2288   2.483   2.598   2.267  0.0617 -0.2524 -0.0659
   45POPC   CN1 2289   3.412   2.204   3.893  0.2672  0.2856  0.0032
   45POPC   CN2 2290   3.290   2.383   0.009 -0.5286 -0.0542  0.1238
   45POPC   CN3 2291   3.231   2.166   0.048 -0.2960 -0.0717  0.0457
   45POPC   NTM 2292   3.278   2.254   3.928  0.1499 -0.1467  0.1750
   45POPC    CA 2293   3.195   2.257   3.807  0.1092 -0.1783  0.2019
   45POPC    CB 2294   3.043   2.274   3.813  0.1285  0.1743 -0.2341
   45POPC    OA 2295   2.964   2.185   3.893  0.1043  0.2299 -0.1960
   45POPC     P 2296   2.808   2.223   3.883 -0.0183 -0.1006  0.3664
   45POPC    OB 2297   2.727   2.104   3.915  0.0176 -0.1454  0.2924
   45POPC    OC 2298   2.770   2.324   3.782  0.0577 -0.2218  0.2158
   45POPC    OD 2299   2.810   2.329   0.016 -0.3185 -0.2445  0.4965
   45POPC    CC 2300   2.802   2.266   0.144  0.4997 -0.6188  0.3754
   45POPC    CD 2301   2.877   2.342   0.254  0.5530 -0.3574  0.1589
   45POPC    OE 2302   2.898   2.278   0.380 -0.0256 -0.2365  0.3202
   45POPC   C1A 2303   2.981   2.174   0.389  0.2123 -0.0473  0.3206
   45POPC    OF 2304   3.044   2.125   0.296 -0.0062  0.2779 -0.0001
   45POPC   C1B 2305   2.970   2.111   0.523 -0.0604 -0.0955  0.2750
   45POPC   C1C 2306   3.052   2.180   0.632  0.9929 -0.9058  0.0112
   45POPC   C1D 2307   3.019   2.124   0.770 -0.0481 -0.2231  0.0498
   45POPC   C1E 2308   3.088   2.204   0.880 -0.1857 -0.1258  0.0663
   45POPC   C1F 2309   3.240   2.187   0.866 -0.1725 -0.0354  0.1025
   45POPC   C1G 2310   3.298   2.264   0.985 -0.2484 -0.0051  0.1204
   45POPC   C1H 2311   3.450   2.265   0.965 -0.2229 -0.1667  0.3002
   45POPC   C1I 2312   3.515   2.376   1.049 -0.4376 -0.3133  0.6641
   45POPC   C1J 2313   3.610   2.358   1.141  0.5211  0.4955 -0.1353
   45POPC   C1K 2314   3.664   2.218   1.170  0.4072  0.2832 -0.9173
   45POPC   C1L 2315   3.798   2.220   1.244  0.0514  0.2845 -0.2696
   45POPC   C1M 2316   3.856   2.079   1.252 -0.0306  0.2529 -0.2224
   45POPC   C1N 2317   3.996   2.071   1.314 -0.0201 -0.2058 -0.3008
   45POPC   C1O 2318   4.097   2.152   1.232  0.1449 -0.2016 -0.0953
   45POPC   C1P 2319   4.242   2.131   1.275  0.3000  0.0737 -0.4785
   45POPC   C1Q 2320   4.330   2.220   1.187  0.2547  0.2086 -0.3868
   45POPC   C1R 2321   4.475   2.197   1.229 -0.2641 -0.7845  0.9223
   45POPC    CE 2322   2.829   2.487   0.258  0.5342 -0.3439 -0.4311
   45POPC    OG 2323   2.690   2.514   0.272  0.5863 -0.2630 -0.0510
   45POPC   C2A 2324   2.658   2.644   0.267  0.1227 -0.3354  0.7629
   45POPC    OH 2325   2.744   2.726   0.236 -0.0964 -0.2960  0.2529
   45POPC   C2B 2326   2.519   2.685   0.293 -0.0366 -0.4601  0.1224
   45POPC   C2C 2327   2.522   2.809   0.382  0.0179 -0.8067  0.6070
   45POPC   C2D 2328   2.388   2.867   0.426  0.2461 -0.0149  0.2805
   45POPC   C2E 2329   2.331   2.778   0.537  0.0593 -0.4825 -0.1858
   45POPC   C2F 2330   2.408   2.795   0.668  0.3065 -0.7469 -0.2944
   45POPC   C2G 2331   2.371   2.687   0.770  0.5212 -1.0052 -0.4886
   45POPC   C2H 2332   2.456   2.709   0.896  0.0953 -0.2181 -0.3330
   45POPC   C2I 2333   2.425   2.606   1.004  0.4307 -0.3402 -0.3543
   45POPC   C2J 2334   2.519   2.627   1.124  0.2657  0.2428 -0.3250
   45POPC   C2K 2335   2.495   2.506   1.215  0.6354  0.3761 -0.0514
   45POPC   C2L 2336   2.589   2.483   1.334  0.4354  0.2853  0.0912
   45POPC   C2M 2337   2.525   2.393   1.439 -0.0977  0.6554  0.0856
   45POPC   C2N 2338   2.603   2.393   1.571 -0.5486 -0.4788  0.3642
   45POPC   C2O 2339   2.741   2.329   1.560 -0.2066  0.2903  0.0901
   45POPC   C2P 2340   2.727   2.176   1.564  0.0556  0.2628 -0.0349
   46POPC   CN1 2341   2.052   3.888   0.452 -0.4443  0.0079  0.7652
   46POPC   CN2 2342   2.118   4.029   0.286  0.0698 -0.1865 -0.0561
   46POPC   CN3 2343   2.102   4.122   0.510 -0.6680  0.5305 -0.3827
   46POPC   NTM 2344   2.043   4.029   0.412 -0.0025 -0.2006 -0.0988
   46POPC    CA 2345   1.904   4.060   0.376  0.2329  0.4059 -0.5054
   46POPC    CB 2346   1.840   4.196   0.349 -0.2077  0.3401  0.1727
   46POPC    OA 2347   1.897   4.252   0.230  0.0483  0.4018  0.3220
   46POPC     P 2348   1.924   4.409   0.253  0.1170  0.4736 -0.2377
   46POPC    OB 2349   1.816   4.473   0.333  0.1706  0.4213 -0.1233
   46POPC    OC 2350   1.964   4.459   0.120  0.5129  0.2525 -0.2035
   46POPC    OD 2351   2.044   4.400   0.360 -0.0950  0.3408 -0.0095
   46POPC    CC 2352   2.136   4.508   0.348  0.1784  0.0614 -0.4233
   46POPC    CD 2353   2.180   4.580   0.476  0.1245 -0.4443 -0.1208
   46POPC    OE 2354   2.237   4.706   0.441 -0.5963 -0.1655 -0.3151
   46POPC   C1A 2355   2.209   4.813   0.514 -0.5354  0.3260 -0.9968
   46POPC    OF 2356   2.120   4.813   0.599  0.0974  0.9235 -0.3185
   46POPC   C1B 2357   2.268   4.934   0.453 -0.3382  0.6411 -0.1991
   46POPC   C1C 2358   2.392   4.997   0.517  0.1187 -0.3535 -0.0874
   46POPC   C1D 2359   2.387   5.012   0.670  0.2972  0.4975 -0.1605
   46POPC   C1E 2360   2.287   5.110   0.732 -0.0219  0.1148 -0.0642
   46POPC   C1F 2361   2.273   5.100   0.884 -0.0393 -0.2904 -0.0923
   46POPC   C1G 2362   2.392   5.170   0.952 -0.1080  0.0241 -0.2979
   46POPC   C1H 2363   2.389   5.156   1.104 -0.2110  0.2453 -0.2791
   46POPC   C1I 2364   2.272   5.222   1.177  0.0849  0.3319  0.1230
   46POPC   C1J 2365   2.212   5.178   1.288  0.1902 -0.7193 -0.2190
   46POPC   C1K 2366   2.273   5.061   1.365  0.2247 -0.4107  0.2231
   46POPC   C1L 2367   2.214   5.059   1.506 -0.2846 -0.4442  0.0117
   46POPC   C1M 2368   2.278   4.942   1.582  0.6409  0.3021  0.3988
   46POPC   C1N 2369   2.249   4.934   1.732  0.4214  0.3337  0.3595
   46POPC   C1O 2370   2.345   4.844   1.810  0.6793  0.4044  0.1266
   46POPC   C1P 2371   2.298   4.807   1.951 -0.4233  0.1842 -0.2936
   46POPC   C1Q 2372   2.210   4.683   1.929 -0.0469 -0.1816  0.2576
   46POPC   C1R 2373   2.183   4.595   2.052 -0.6219 -0.0998  0.1922
   46POPC    CE 2374   2.270   4.479   0.547  0.4288 -0.1903 -0.1472
   46POPC    OG 2375   2.302   4.504   0.685 -0.1285  0.0126 -0.0529
   46POPC   C2A 2376   2.320   4.392   0.754 -0.1583  0.1237  0.1366
   46POPC    OH 2377   2.292   4.280   0.709  0.8416 -0.0036 -0.1880
   46POPC   C2B 2378   2.355   4.403   0.897 -0.3187 -0.4757  0.2263
   46POPC   C2C 2379   2.506   4.390   0.913 -0.2810 -0.1457  0.1476
   46POPC   C2D 2380   2.538   4.411   1.061 -0.0934 -0.4769  0.1555
   46POPC   C2E 2381   2.526   4.559   1.097  0.7433 -0.3087 -0.2393
   46POPC   C2F 2382   2.551   4.577   1.247 -0.1539  0.0205 -0.1254
   46POPC   C2G 2383   2.585   4.724   1.276 -0.3537  0.0042  0.1965
   46POPC   C2H 2384   2.631   4.724   1.422  0.4439  0.3817 -0.0503
   46POPC   C2I 2385   2.692   4.856   1.467  0.4912  0.3644 -0.0631
   46POPC   C2J 2386   2.747   4.838   1.608 -0.2399 -0.1529  0.1567
   46POPC   C2K 2387   2.775   4.966   1.687  0.2933 -0.0493 -0.1940
   46POPC   C2L 2388   2.871   4.933   1.802 -0.3867 -0.0396  0.3887
   46POPC   C2M 2389   2.861   5.046   1.904  0.2254  0.0099  0.3996
   46POPC   C2N 2390   2.865   5.005   2.051 -0.2569 -0.1501  0.3693
   46POPC   C2O 2391   2.773   4.889   2.091 -0.6948 -0.0339 -0.2788
   46POPC   C2P 2392   2.762   4.861   2.241 -0.0636  0.0893 -0.2080
   47POPC   CN1 2393   0.559   0.979   3.970  0.2423 -0.1463 -0.4298
   47POPC   CN2 2394   0.797   0.988   0.050  0.1968 -0.1961 -0.4255
   47POPC   CN3 2395   0.656   0.797   0.104  0.0826  0.0983  0.2404
   47POPC   NTM 2396   0.661   0.942   0.081  0.1577  0.0158 -0.2832
   47POPC    CA 2397   0.614   1.008   0.204  0.2541 -0.2504 -0.1020
   47POPC    CB 2398   0.476   0.984   0.266  0.1885  0.2886 -0.0374
   47POPC    OA 2399   0.485   0.875   0.359 -0.2843  0.2319 -0.0589
   47POPC     P 2400   0.344   0.832   0.424 -0.1547 -0.0780  0.0137
   47POPC    OB 2401   0.341   0.686   0.452 -0.2088 -0.1176 -0.1988
   47POPC    OC 2402   0.236   0.890   0.342 -0.5474 -0.5472  0.1934
   47POPC    OD 2403   0.353   0.914   0.562 -0.5851  0.0039 -0.0055
   47POPC    CC 2404   0.452   0.858   0.650 -0.0384  0.2367 -0.4670
   47POPC    CD 2405   0.460   0.909   0.794 -0.3892 -0.0445 -0.3465
   47POPC    OE 2406   0.360   0.860   0.884  0.0474  0.1952  0.2757
   47POPC   C1A 2407   0.245   0.920   0.909 -0.4169 -0.3714 -0.4272
   47POPC    OF 2408   0.198   1.008   0.836 -0.0663  0.6449  0.5318
   47POPC   C1B 2409   0.170   0.845   1.013  0.3841 -0.3709  0.1627
   47POPC   C1C 2410   0.165   0.912   1.150  0.6846 -0.3343  0.1558
   47POPC   C1D 2411   0.096   0.811   1.241 -0.3868 -0.0709 -0.3539
   47POPC   C1E 2412   0.037   0.882   1.363 -0.1405 -0.1938 -0.1618
   47POPC   C1F 2413   0.022   0.798   1.490 -0.0174  0.1395  0.0753
   47POPC   C1G 2414   0.144   0.733   1.554 -0.2046 -0.3013 -0.0142
   47POPC   C1H 2415   0.100   0.676   1.689  0.4381 -0.0623  0.2999
   47POPC   C1I 2416   0.227   0.624   1.757  0.2131 -0.6871  0.2520
   47POPC   C1J 2417   0.267   0.678   1.872  0.0514  0.7350 -0.3317
   47POPC   C1K 2418   0.188   0.786   1.945 -0.5817  0.1371 -0.1216
   47POPC   C1L 2419   0.201   0.760   2.095 -0.1107  0.3933 -0.1146
   47POPC   C1M 2420   0.149   0.878   2.177  0.1200  0.4034  0.0171
   47POPC   C1N 2421   0.186   0.865   2.325 -0.0794  0.0362  0.0378
   47POPC   C1O 2422   0.336   0.841   2.345  0.0179  0.5548 -0.0524
   47POPC   C1P 2423   0.382   0.844   2.491 -0.2172  0.1956  0.0320
   47POPC   C1Q 2424   0.432   0.981   2.539  0.8204 -0.1265 -0.0965
   47POPC   C1R 2425   0.490   0.966   2.679  0.3158 -0.4462  0.0783
   47POPC    CE 2426   0.481   1.060   0.795  0.2165 -0.1288  0.2259
   47POPC    OG 2427   0.609   1.096   0.744  0.0107  0.0772 -0.1499
   47POPC   C2A 2428   0.610   1.182   0.643 -0.0998 -0.1124 -0.3141
   47POPC    OH 2429   0.509   1.201   0.575 -0.3908 -0.4256  0.0308
   47POPC   C2B 2430   0.744   1.244   0.637 -0.0758 -0.1554 -0.2127
   47POPC   C2C 2431   0.748   1.385   0.695  0.2968 -0.1768 -0.1833
   47POPC   C2D 2432   0.700   1.394   0.840  0.1204 -0.1610 -0.2427
   47POPC   C2E 2433   0.826   1.378   0.925 -0.0204  0.2009  0.0367
   47POPC   C2F 2434   0.810   1.387   1.076  0.1895  0.3190  0.0523
   47POPC   C2G 2435   0.945   1.387   1.148  0.0670 -0.4294  0.2940
   47POPC   C2H 2436   1.007   1.526   1.127 -0.5075 -0.2561 -0.2794
   47POPC   C2I 2437   0.948   1.629   1.224  0.2470  0.2765 -0.3811
   47POPC   C2J 2438   0.970   1.603   1.374  0.0191  0.4253 -0.3203
   47POPC   C2K 2439   0.900   1.710   1.457 -0.0082  0.0516  0.1442
   47POPC   C2L 2440   0.966   1.745   1.591  0.5223  0.3287 -0.1827
   47POPC   C2M 2441   1.108   1.799   1.571  0.5043  0.3499 -0.2564
   47POPC   C2N 2442   1.169   1.829   1.708 -0.2432 -0.2462  0.2167
   47POPC   C2O 2443   1.311   1.883   1.695 -0.3064 -0.1491 -0.0804
   47POPC   C2P 2444   1.304   2.027   1.646 -0.2273 -0.2124 -0.2814
   48POPC   CN1 2445   5.054   1.613   0.202 -0.3848  0.3550 -0.1004
   48POPC   CN2 2446   5.145   1.829   0.149  0.2588  0.6797 -0.8178
   48POPC   CN3 2447   4.955   1.744   0.027 -0.1666 -0.3981  0.2531
   48POPC   NTM 2448   5.081   1.709   0.094  0.1679  0.3334  0.0175
   48POPC    CA 2449   5.183   1.659   3.988  0.1349  0.0231  0.1450
   48POPC    CB 2450   5.137   1.557   3.884  0.2342 -0.2409  0.3579
   48POPC    OA 2451   5.084   1.436   3.939  0.0899 -0.2866  0.1189
   48POPC     P 2452   4.992   1.346   3.843 -0.1286 -0.1626  0.2090
   48POPC    OB 2453   5.003   1.200   3.867 -0.1274 -0.1431  0.3274
   48POPC    OC 2454   5.009   1.409   3.710 -0.0804 -0.1716  0.2109
   48POPC    OD 2455   4.846   1.381   3.900 -0.0709  0.3934  0.0197
   48POPC    CC 2456   4.832   1.342   0.048 -0.1786  0.2888 -0.0210
   48POPC    CD 2457   4.692   1.360   0.107 -0.2000  0.2586 -0.0625
   48POPC    OE 2458   4.674   1.323   0.244  0.0102  0.8758  0.1347
   48POPC   C1A 2459   4.743   1.372   0.346  0.5149 -0.1073  0.2778
   48POPC    OF 2460   4.850   1.433   0.332  0.1776  0.5563  0.5334
   48POPC   C1B 2461   4.689   1.325   0.475  0.0093  0.3433  0.2360
   48POPC   C1C 2462   4.753   1.189   0.506  0.3020  0.3708 -0.2430
   48POPC   C1D 2463   4.785   1.174   0.654  0.0472 -0.2975 -0.2538
   48POPC   C1E 2464   4.824   1.027   0.673  0.1436 -0.2677 -0.2208
   48POPC   C1F 2465   4.867   0.995   0.816 -0.1438  0.1306 -0.0461
   48POPC   C1G 2466   5.001   1.056   0.855 -0.2015  0.4043 -0.2724
   48POPC   C1H 2467   5.065   1.032   0.993 -0.3226  0.2927 -0.2359
   48POPC   C1I 2468   5.198   1.108   0.992  0.0195 -0.3037  0.0204
   48POPC   C1J 2469   5.258   1.129   1.109 -0.2828 -0.6057  0.2327
   48POPC   C1K 2470   5.191   1.086   1.240 -0.3522 -0.3059  0.2966
   48POPC   C1L 2471   5.253   1.150   1.364  0.3347  0.0734 -0.2376
   48POPC   C1M 2472   5.160   1.117   1.481  0.1401  0.6833 -0.2177
   48POPC   C1N 2473   5.226   1.137   1.617 -0.3237  0.2971  0.0663
   48POPC   C1O 2474   5.131   1.096   1.730 -0.1822 -0.3850 -0.0602
   48POPC   C1P 2475   5.210   1.046   1.850 -0.0960 -0.0208  0.0339
   48POPC   C1Q 2476   5.121   1.000   1.965 -0.3345 -0.7159 -0.4261
   48POPC   C1R 2477   5.062   1.111   2.053  0.4849 -0.6185  0.0067
   48POPC    CE 2478   4.613   1.262   0.019 -0.4274 -0.1079  0.5448
   48POPC    OG 2479   4.640   1.123   0.038  0.1515 -0.1456 -0.5015
   48POPC   C2A 2480   4.537   1.041   0.024 -0.0684  0.1311 -0.4980
   48POPC    OH 2481   4.421   1.078   0.044  0.2715  0.5418  0.7779
   48POPC   C2B 2482   4.576   0.899   0.022 -0.0291  0.1311  0.0746
   48POPC   C2C 2483   4.570   0.844   0.165 -0.0628  0.5226  0.2238
   48POPC   C2D 2484   4.579   0.692   0.168  0.2039  0.5432  0.4731
   48POPC   C2E 2485   4.551   0.615   0.298  0.3311 -0.5782 -0.1485
   48POPC   C2F 2486   4.638   0.668   0.412 -0.4072  0.1546  0.0800
   48POPC   C2G 2487   4.630   0.571   0.530  0.7156 -0.7011 -0.5371
   48POPC   C2H 2488   4.711   0.603   0.656  0.0563 -0.4931 -0.1592
   48POPC   C2I 2489   4.688   0.497   0.764  0.2954 -0.0841  0.2973
   48POPC   C2J 2490   4.754   0.541   0.895  0.2884 -0.1386  0.3189
   48POPC   C2K 2491   4.905   0.520   0.895  0.2960 -0.0804  0.1448
   48POPC   C2L 2492   4.966   0.586   1.019 -0.0985 -0.1008  0.3507
   48POPC   C2M 2493   5.115   0.553   1.031 -0.1443 -0.1163  0.8873
   48POPC   C2N 2494   5.189   0.664   1.106 -0.0223  0.5574 -0.2038
   48POPC   C2O 2495   5.339   0.638   1.093 -0.0609  0.2752 -0.1051
   48POPC   C2P 2496   5.410   0.750   1.170  0.0681  0.1231 -0.0019
   49POPC   CN1 2497   4.939   4.873   0.803 -0.2448 -0.0195 -0.3462
   49POPC   CN2 2498   4.831   5.036   0.677 -0.1556  0.4452 -0.2014
   49POPC   CN3 2499   4.793   4.820   0.610 -0.4119  0.5722  0.0909
   49POPC   NTM 2500   4.898   4.906   0.666 -0.1293  0.4643 -0.2664
   49POPC    CA 2501   5.007   4.913   0.567  0.1423 -0.2102 -0.0193
   49POPC    CB 2502   5.125   4.815   0.561  0.0938 -0.2500 -0.3196
   49POPC    OA 2503   5.079   4.681   0.579 -0.1838 -0.1551 -0.3040
   49POPC     P 2504   5.192   4.577   0.528  0.0480  0.0034 -0.1102
   49POPC    OB 2505   5.272   4.624   0.412  0.0105 -0.5231 -0.3481
   49POPC    OC 2506   5.140   4.439   0.517  0.4218 -0.1614  0.1552
   49POPC    OD 2507   5.301   4.586   0.647 -0.4973 -0.4243  0.4262
   49POPC    CC 2508   5.240   4.554   0.772 -0.4624 -0.1076  0.5236
   49POPC    CD 2509   5.318   4.598   0.896  0.0073 -0.1391  0.2418
   49POPC    OE 2510   5.330   4.735   0.937  0.1461  0.0311 -0.3584
   49POPC   C1A 2511   5.231   4.798   1.000 -0.2259  0.0845 -0.9962
   49POPC    OF 2512   5.129   4.731   1.019 -0.2618  0.3215 -0.3472
   49POPC   C1B 2513   5.257   4.935   1.048 -0.2968 -0.2666  0.0706
   49POPC   C1C 2514   5.401   4.972   1.083 -0.4056  0.1854  0.0480
   49POPC   C1D 2515   5.413   5.106   1.156 -0.0471  0.4614 -0.5088
   49POPC   C1E 2516   5.550   5.170   1.130 -0.0150  0.4921 -0.2665
   49POPC   C1F 2517   5.554   5.297   1.215 -0.3593  0.1810  0.2171
   49POPC   C1G 2518   5.585   5.270   1.363  0.2141  0.1128  0.0866
   49POPC   C1H 2519   5.728   5.224   1.393  0.1139 -0.2042  0.0805
   49POPC   C1I 2520   5.722   5.172   1.537  0.0965 -0.2281  0.0710
   49POPC   C1J 2521   5.838   5.170   1.602  0.3078  0.5238 -0.2725
   49POPC   C1K 2522   5.968   5.226   1.544  0.4527  0.3517 -0.1183
   49POPC   C1L 2523   6.089   5.157   1.606  0.3738  0.3485  0.0349
   49POPC   C1M 2524   6.224   5.186   1.539  0.5512 -0.0188  0.2356
   49POPC   C1N 2525   0.074   5.119   1.613  0.0745 -0.5368  0.5296
   49POPC   C1O 2526   0.203   5.168   1.547 -0.3661 -0.3622 -0.2160
   49POPC   C1P 2527   0.340   5.125   1.599 -0.2104  0.0118 -0.3188
   49POPC   C1Q 2528   0.454   5.218   1.557  0.2754 -0.4098  0.0440
   49POPC   C1R 2529   0.470   5.208   1.405 -0.0837  0.0497 -0.0270
   49POPC    CE 2530   5.446   4.513   0.899  0.0392 -0.0960  0.1042
   49POPC    OG 2531   5.428   4.378   0.941  0.1761 -0.0710  0.2446
   49POPC   C2A 2532   5.512   4.290   0.885  0.4209  0.1427  0.2731
   49POPC    OH 2533   5.551   4.315   0.771 -0.1411 -0.1764  0.0030
   49POPC   C2B 2534   5.524   4.160   0.955 -0.3731 -0.0831  0.0091
   49POPC   C2C 2535   5.556   4.166   1.104  0.2929  0.4358 -0.1464
   49POPC   C2D 2536   5.695   4.228   1.119  0.2961  0.4716 -0.3291
   49POPC   C2E 2537   5.744   4.206   1.262 -0.1091 -0.2855 -0.3045
   49POPC   C2F 2538   5.784   4.061   1.293  0.5474 -0.1251 -0.3713
   49POPC   C2G 2539   5.886   4.058   1.406 -0.4348  0.1704  0.5386
   49POPC   C2H 2540   5.999   4.160   1.393 -0.7511  0.4938  0.3054
   49POPC   C2I 2541   6.054   4.203   1.530 -0.5823  0.0680  0.3719
   49POPC   C2J 2542   6.172   4.299   1.509 -0.1451 -0.5704 -0.1463
   49POPC   C2K 2543   0.020   4.226   1.440  0.3331 -0.1385  0.1950
   49POPC   C2L 2544   0.132   4.328   1.415 -0.0997  0.1854 -0.4268
   49POPC   C2M 2545   0.255   4.260   1.357  0.0816  0.4458 -0.3490
   49POPC   C2N 2546   0.346   4.200   1.464  0.0423  0.2072 -0.4489
   49POPC   C2O 2547   0.479   4.144   1.412 -0.0286  0.0361 -0.4461
   49POPC   C2P 2548   0.572   4.090   1.520 -0.4514  0.0140 -0.0883
   50POPC   CN1 2549   3.665   5.285   0.526  0.2303  0.9833 -0.0114
   50POPC   CN2 2550   3.744   5.129   0.678 -0.2349 -0.3443 -0.3630
   50POPC   CN3 2551   3.734   5.361   0.731 -0.3681  0.0541 -0.0296
   50POPC   NTM 2552   3.770   5.264   0.627 -0.1858 -0.1348  0.2055
   50POPC    CA 2553   3.906   5.291   0.577 -0.2373 -0.2763 -0.0124
   50POPC    CB 2554   4.022   5.264   0.672 -0.5059 -0.2887  0.3149
   50POPC    OA 2555   4.062   5.361   0.769  0.1970 -0.1820 -0.0703
   50POPC     P 2556   4.140   5.301   0.896  0.0698  0.3435  0.2632
   50POPC    OB 2557   4.186   5.415   0.978  0.5510 -0.1556  0.6969
   50POPC    OC 2558   4.239   5.198   0.858 -0.0495  0.2498  0.2043
   50POPC    OD 2559   4.033   5.214   0.979  0.4827  0.2755  0.7257
   50POPC    CC 2560   3.958   5.283   1.079  0.1154  0.4186  0.3529
   50POPC    CD 2561   3.857   5.196   1.155  0.0797 -0.1913 -0.3857
   50POPC    OE 2562   3.761   5.277   1.224  0.2285  0.2399 -0.6801
   50POPC   C1A 2563   3.658   5.330   1.159 -0.2043  0.3258  0.0661
   50POPC    OF 2564   3.664   5.329   1.036 -0.0237  0.3174  0.0743
   50POPC   C1B 2565   3.577   5.423   1.241  0.0210  0.3871  0.2197
   50POPC   C1C 2566   3.512   5.377   1.372 -0.3834  0.0962 -0.0819
   50POPC   C1D 2567   3.459   5.506   1.437  0.4306  0.3306  0.1267
   50POPC   C1E 2568   3.444   5.497   1.588  0.4668 -0.1547  0.1027
   50POPC   C1F 2569   3.578   5.486   1.661  0.2770 -0.7611  0.3704
   50POPC   C1G 2570   3.565   5.531   1.807 -0.1490  0.0154  0.0982
   50POPC   C1H 2571   3.700   5.507   1.874 -0.4421 -0.8215  0.3966
   50POPC   C1I 2572   3.716   5.596   1.998 -0.4016 -0.4290  0.1076
   50POPC   C1J 2573   3.806   5.561   2.089 -0.2463  0.1672  0.1900
   50POPC   C1K 2574   3.884   5.431   2.066 -0.0630  0.2565  0.3041
   50POPC   C1L 2575   4.025   5.435   2.125  0.1962  0.0750 -0.2988
   50POPC   C1M 2576   4.108   5.322   2.064 -0.1579 -0.2658 -0.1505
   50POPC   C1N 2577   4.252   5.349   2.107 -0.2974 -0.4163  0.4289
   50POPC   C1O 2578   4.343   5.239   2.053  0.3862  0.2982  0.0919
   50POPC   C1P 2579   4.482   5.253   2.114  0.5776  0.0743 -0.2880
   50POPC   C1Q 2580   4.566   5.127   2.089  0.0014 -0.2523 -0.5858
   50POPC   C1R 2581   4.679   5.112   2.191 -0.2562  0.0224 -0.2559
   50POPC    CE 2582   3.942   5.081   1.209  0.3831 -0.0135 -0.4840
   50POPC    OG 2583   4.032   5.108   1.317 -0.4563 -0.0683  0.2427
   50POPC   C2A 2584   4.145   5.039   1.331 -0.1378  0.3336 -0.3102
   50POPC    OH 2585   4.190   4.988   1.229  0.2053 -0.1522  0.0819
   50POPC   C2B 2586   4.229   5.068   1.449  0.3593 -0.1392 -0.5469
   50POPC   C2C 2587   4.329   4.952   1.455 -0.4351 -0.7972  0.1523
   50POPC   C2D 2588   4.447   4.979   1.548 -0.5402 -0.2035  0.1145
   50POPC   C2E 2589   4.536   4.855   1.561  0.0637  0.1731 -0.3478
   50POPC   C2F 2590   4.632   4.887   1.676 -0.0336 -0.4658 -0.0826
   50POPC   C2G 2591   4.726   4.769   1.698  0.1998 -0.3358 -0.3770
   50POPC   C2H 2592   4.826   4.790   1.812  0.1972 -0.3104 -0.3797
   50POPC   C2I 2593   4.903   4.658   1.814  0.0577 -0.3859  0.2689
   50POPC   C2J 2594   5.026   4.663   1.905  0.2887  0.1380 -0.0708
   50POPC   C2K 2595   5.090   4.524   1.894 -0.2283 -0.1193  0.1463
   50POPC   C2L 2596   5.201   4.520   1.999 -0.3646 -0.1480  0.2892
   50POPC   C2M 2597   5.279   4.389   2.000 -0.6064 -0.2961  0.0667
   50POPC   C2N 2598   5.313   4.327   2.136 -0.2460  0.1023  0.1614
   50POPC   C2O 2599   5.432   4.232   2.137 -0.1093  0.2720  0.6658
   50POPC   C2P 2600   5.559   4.307   2.096  0.2475 -0.5115  0.3091
   51POPC   CN1 2601   2.142   6.070   0.174  0.3780  0.2823  0.5233
   51POPC   CN2 2602   2.197   6.292   0.259  0.3259 -0.3616 -0.3652
   51POPC   CN3 2603   2.030   6.260   0.090 -0.5293  0.1343  0.3455
   51POPC   NTM 2604   2.159   6.212   0.142 -0.1778  0.1202 -0.5330
   51POPC    CA 2605   2.253   6.241   0.032  0.2001 -0.5198 -0.3796
   51POPC    CB 2606   2.388   6.170   0.017  0.1936 -0.5615 -0.2426
   51POPC    OA 2607   2.482   6.165   0.124  0.2443  0.1975 -0.2435
   51POPC     P 2608   2.594   6.280   0.109  0.1298  0.3449  0.0270
   51POPC    OB 2609   2.523   0.110   0.082 -0.1858  0.2775  0.5308
   51POPC    OC 2610   2.705   6.236   0.022  0.0235 -0.1048  0.1165
   51POPC    OD 2611   2.662   6.283   0.255  0.0232  0.2299  0.0795
   51POPC    CC 2612   2.566   0.033   0.349 -0.4548 -0.5688  0.0044
   51POPC    CD 2613   2.569   6.255   0.482 -0.0347 -0.2934  0.1533
   51POPC    OE 2614   2.470   6.292   0.580  0.0823 -0.4839  0.3426
   51POPC   C1A 2615   2.356   6.223   0.581 -0.1784 -0.0544  0.2670
   51POPC    OF 2616   2.333   6.140   0.493  0.0209 -0.1254  0.2813
   51POPC   C1B 2617   2.264   6.264   0.689  0.1225 -0.1089  0.5467
   51POPC   C1C 2618   2.167   6.149   0.720  0.2920 -0.4443 -0.1427
   51POPC   C1D 2619   2.082   6.197   0.838  0.0897 -0.0833 -0.4333
   51POPC   C1E 2620   2.016   6.066   0.881 -0.2568  0.1972 -0.1057
   51POPC   C1F 2621   1.914   6.101   0.989 -0.2241 -0.6297  0.1966
   51POPC   C1G 2622   1.987   6.123   1.122 -0.1724 -0.3277  0.1202
   51POPC   C1H 2623   1.896   6.106   1.244 -0.1946  0.0763  0.1590
   51POPC   C1I 2624   1.783   6.210   1.254  0.1229  0.5278 -0.8561
   51POPC   C1J 2625   1.730   6.250   1.369 -0.1105  0.0056 -0.7801
   51POPC   C1K 2626   1.768   6.181   1.500 -0.0853  0.5446 -0.5039
   51POPC   C1L 2627   1.783   6.287   1.610 -0.7841 -0.0549  0.1821
   51POPC   C1M 2628   1.788   6.219   1.747  0.0485  0.0240  0.1949
   51POPC   C1N 2629   1.769   0.029   1.855  0.4286  0.3540 -0.0611
   51POPC   C1O 2630   1.767   6.258   1.992  0.0162  0.1719 -0.1537
   51POPC   C1P 2631   1.651   6.163   2.022  0.5545 -0.3294  0.3547
   51POPC   C1Q 2632   1.659   6.106   2.164  0.1931  0.0765  0.5437
   51POPC   C1R 2633   1.797   6.046   2.193  0.4264  0.2279 -0.2350
   51POPC    CE 2634   2.705   6.280   0.546 -0.2486  0.0257  0.4881
   51POPC    OG 2635   2.751   6.185   0.643 -0.1367 -0.5295 -0.1060
   51POPC   C2A 2636   2.878   6.146   0.636  0.3230  0.8518  0.2064
   51POPC    OH 2637   2.960   6.184   0.552  0.4320 -0.0080 -0.0868
   51POPC   C2B 2638   2.914   6.048   0.740  0.4700  0.1545 -0.4921
   51POPC   C2C 2639   2.978   6.124   0.856  0.2598  0.1007 -0.3398
   51POPC   C2D 2640   3.037   6.040   0.970  0.0023  0.2042 -0.1294
   51POPC   C2E 2641   2.981   5.901   0.999 -0.0410  0.2570  0.0400
   51POPC   C2F 2642   3.019   5.848   1.138 -0.3677 -0.0056  0.0298
   51POPC   C2G 2643   2.975   5.701   1.130 -0.5237  0.0265  0.3035
   51POPC   C2H 2644   3.047   5.626   1.242 -0.0953 -0.2595 -0.1607
   51POPC   C2I 2645   2.970   5.620   1.374  0.1926 -0.3316  0.0038
   51POPC   C2J 2646   3.049   5.559   1.490 -0.0008  0.0080  0.3166
   51POPC   C2K 2647   2.961   5.556   1.615 -0.4146 -0.1459  0.0234
   51POPC   C2L 2648   3.042   5.495   1.730 -0.2024  0.2749  0.0980
   51POPC   C2M 2649   2.974   5.542   1.859  0.1392 -0.3635  0.5196
   51POPC   C2N 2650   3.052   5.504   1.984  0.6882 -0.0211  0.2861
   51POPC   C2O 2651   3.198   5.548   1.971  0.5326  0.2819 -0.4622
   51POPC   C2P 2652   3.198   5.701   1.981  0.3684  0.2595 -0.1090
   52POPC   CN1 2653   1.282   5.967   0.450  0.8402  0.6500  0.7586
   52POPC   CN2 2654   1.250   5.858   0.655 -0.4173  0.1003 -0.3390
   52POPC   CN3 2655   1.470   5.930   0.586  0.2621  0.2371  0.3201
   52POPC   NTM 2656   1.343   5.870   0.542  0.4062 -0.0576  0.3058
   52POPC    CA 2657   1.348   5.733   0.487 -0.2541  0.1695 -0.3420
   52POPC    CB 2658   1.401   5.698   0.348  0.9329  0.0539  0.1292
   52POPC    OA 2659   1.526   5.752   0.304  0.8358  0.2211  0.0578
   52POPC     P 2660   1.545   5.704   0.151 -0.1805  0.1688 -0.0617
   52POPC    OB 2661   1.421   5.748   0.084 -0.2614  0.6552  0.3943
   52POPC    OC 2662   1.582   5.561   0.156  0.2346  0.2693 -0.1969
   52POPC    OD 2663   1.666   5.804   0.112  0.1360 -0.2167 -0.0782
   52POPC    CC 2664   1.633   5.936   0.067 -0.2018 -0.2837 -0.0302
   52POPC    CD 2665   1.585   6.039   0.170 -0.3246 -0.1892 -0.1826
   52POPC    OE 2666   1.543   6.162   0.110 -0.1007 -0.3151 -0.6028
   52POPC   C1A 2667   1.417   6.199   0.127 -0.0240 -0.3329  0.0305
   52POPC    OF 2668   1.329   6.141   0.191 -0.3573 -0.3797 -0.4665
   52POPC   C1B 2669   1.398   0.036   0.066  0.8292 -0.1904  0.0685
   52POPC   C1C 2670   1.440   0.139   0.171 -0.1206  0.1983  0.0730
   52POPC   C1D 2671   1.367   0.156   0.304  0.1396 -0.2303  0.2701
   52POPC   C1E 2672   1.433   0.270   0.382 -0.5402  0.2499  0.1514
   52POPC   C1F 2673   1.379   0.275   0.526  0.2855 -0.1740  0.4809
   52POPC   C1G 2674   1.242   0.342   0.528  0.2256 -0.2646 -0.2554
   52POPC   C1H 2675   1.217   0.394   0.669 -0.0534  0.3441 -0.5246
   52POPC   C1I 2676   1.092   0.482   0.681 -0.4721 -0.2774 -0.1892
   52POPC   C1J 2677   1.055   0.496   0.807  0.3108 -0.3204  0.0510
   52POPC   C1K 2678   1.116   0.418   0.924 -0.1992 -0.4447  0.2368
   52POPC   C1L 2679   1.002   0.378   1.018 -0.7553 -0.3944 -0.4113
   52POPC   C1M 2680   0.952   0.506   1.085 -0.1553 -0.1486 -0.4255
   52POPC   C1N 2681   0.840   0.477   1.186  0.1173 -1.1774 -0.4101
   52POPC   C1O 2682   0.894   0.391   1.300  0.1466 -1.1079 -0.3715
   52POPC   C1P 2683   0.782   0.375   1.403  0.1367 -0.4053 -0.2661
   52POPC   C1Q 2684   0.833   0.314   1.534  0.2142  0.0816 -0.0695
   52POPC   C1R 2685   0.938   0.399   1.607  0.2589 -0.2196  0.2187
   52POPC    CE 2686   1.705   6.063   0.261 -0.3182 -0.1606 -0.1986
   52POPC    OG 2687   1.677   6.134   0.381  0.1052 -0.0676 -0.1507
   52POPC   C2A 2688   1.767   6.225   0.417  0.1441 -0.1957  0.0776
   52POPC    OH 2689   1.884   6.227   0.379  0.1621 -0.0296  0.1419
   52POPC   C2B 2690   1.708   0.035   0.501  0.3045  0.1266 -0.2193
   52POPC   C2C 2691   1.699   6.286   0.646 -0.2087 -0.1991 -0.3501
   52POPC   C2D 2692   1.663   0.113   0.728  0.3433  0.0623 -0.4980
   52POPC   C2E 2693   1.681   0.087   0.878 -0.0123  0.0411 -0.4576
   52POPC   C2F 2694   1.617   0.210   0.943 -0.5868 -0.3842 -0.2105
   52POPC   C2G 2695   1.649   0.223   1.092 -0.7126 -0.0296 -0.2123
   52POPC   C2H 2696   1.597   0.354   1.151  0.1074  0.3065 -0.2200
   52POPC   C2I 2697   1.446   0.378   1.167  0.0825 -0.0136  0.0466
   52POPC   C2J 2698   1.405   0.494   1.258  0.2761 -0.1881  0.3597
   52POPC   C2K 2699   1.266   0.472   1.316  0.0874  0.2052  0.0655
   52POPC   C2L 2700   1.247   0.547   1.448 -0.1731  0.0447  0.1215
   52POPC   C2M 2701   1.245   0.700   1.445 -0.3591  0.0403  0.0614
   52POPC   C2N 2702   1.149   0.750   1.336 -0.2254 -0.1876 -0.1626
   52POPC   C2O 2703   1.154   0.902   1.320  0.1397 -0.1682  0.1214
   52POPC   C2P 2704   1.122   0.973   1.452  0.5327  0.4873 -0.1333
   53POPC   CN1 2705   6.054   1.886   0.188  0.1647  0.2770 -0.0617
   53POPC   CN2 2706   5.903   1.925   0.011  0.0880  0.0698 -0.2350
   53POPC   CN3 2707   6.128   1.898   3.953 -0.1678 -0.3901 -0.2414
   53POPC   NTM 2708   6.037   1.959   0.062  0.1046 -0.0140 -0.2217
   53POPC    CA 2709   6.068   2.103   0.065  0.3347 -0.0729  0.1981
   53POPC    CB 2710   5.994   2.194   0.163 -0.1739  0.4229 -0.6391
   53POPC    OA 2711   5.853   2.206   0.142 -0.1969  0.7059 -0.3281
   53POPC     P 2712   5.794   2.232   0.289  0.2707  0.0634 -0.0197
   53POPC    OB 2713   5.664   2.300   0.264  0.3860  0.5507  0.6797
   53POPC    OC 2714   5.884   2.303   0.383  0.1101  0.1637  0.0595
   53POPC    OD 2715   5.771   2.080   0.338 -0.2928  0.1661  0.0451
   53POPC    CC 2716   5.642   2.030   0.301  0.0702 -0.5344 -0.2855
   53POPC    CD 2717   5.622   1.878   0.309 -0.5116 -0.4390  0.1528
   53POPC    OE 2718   5.623   1.807   0.185 -0.4093 -0.2359  0.0377
   53POPC   C1A 2719   5.532   1.821   0.089 -0.3220 -0.3981 -0.0704
   53POPC    OF 2720   5.436   1.896   0.111  0.1314  0.1362  0.1159
   53POPC   C1B 2721   5.542   1.737   3.957 -0.3137 -0.2504 -0.1732
   53POPC   C1C 2722   5.579   1.816   3.831 -0.4515  0.3307  0.1499
   53POPC   C1D 2723   5.612   1.707   3.729 -0.0819  0.1227  0.4900
   53POPC   C1E 2724   5.748   1.646   3.762  0.1773  0.2486 -0.3415
   53POPC   C1F 2725   5.787   1.521   3.683 -0.2767 -0.2348  0.1899
   53POPC   C1G 2726   5.897   1.444   3.757 -0.1638 -0.2778 -0.0216
   53POPC   C1H 2727   5.864   1.400   3.900 -0.3148  0.6152  0.2208
   53POPC   C1I 2728   5.804   1.259   3.904  0.2878  0.3608  0.3713
   53POPC   C1J 2729   5.699   1.237   3.981 -0.5372 -0.1815 -0.8813
   53POPC   C1K 2730   5.632   1.350   0.072 -0.0523 -0.5943  0.1252
   53POPC   C1L 2731   5.490   1.314   0.115 -0.1604 -0.4303 -0.0953
   53POPC   C1M 2732   5.398   1.418   0.179 -0.0447 -0.5646  0.2941
   53POPC   C1N 2733   5.471   1.476   0.300 -0.1054 -0.6253  0.3602
   53POPC   C1O 2734   5.377   1.503   0.417  0.0146  0.1066  0.2971
   53POPC   C1P 2735   5.316   1.381   0.487  0.0574 -0.2758 -0.3220
   53POPC   C1Q 2736   5.217   1.448   0.582  0.1353 -0.2804 -0.2369
   53POPC   C1R 2737   5.161   1.341   0.676  0.1293  0.8940  1.1265
   53POPC    CE 2738   5.502   1.871   0.403 -0.0792 -0.2058  0.7269
   53POPC    OG 2739   5.538   1.914   0.535 -0.1551  0.2005  0.6156
   53POPC   C2A 2740   5.459   1.871   0.632 -0.3171  0.2682  0.5132
   53POPC    OH 2741   5.369   1.791   0.603 -0.0305 -0.0154  0.4051
   53POPC   C2B 2742   5.490   1.917   0.769  0.3193  0.6008  0.2575
   53POPC   C2C 2743   5.357   1.938   0.840  0.1033 -0.5268  0.2023
   53POPC   C2D 2744   5.374   2.003   0.978 -0.0393 -0.0767  0.0101
   53POPC   C2E 2745   5.495   1.952   1.057 -0.2104 -0.4671  0.0240
   53POPC   C2F 2746   5.490   2.012   1.198  0.6643  0.0722 -0.1691
   53POPC   C2G 2747   5.372   1.959   1.280  0.3705 -0.2295 -0.7771
   53POPC   C2H 2748   5.314   2.074   1.363  0.4394 -0.1087 -0.8939
   53POPC   C2I 2749   5.205   2.014   1.453  0.7413  0.0998 -0.3890
   53POPC   C2J 2750   5.109   2.124   1.498 -0.4850 -0.5457 -1.3882
   53POPC   C2K 2751   4.974   2.059   1.528 -0.1132 -0.4785  0.5251
   53POPC   C2L 2752   4.881   2.159   1.599  0.2653  0.2836 -0.0335
   53POPC   C2M 2753   4.835   2.263   1.497 -0.4640  0.0724  0.0733
   53POPC   C2N 2754   4.716   2.345   1.545 -0.2972  0.3016  0.0974
   53POPC   C2O 2755   4.709   2.451   1.435 -0.1091  0.1175 -0.0900
   53POPC   C2P 2756   4.590   2.546   1.444 -0.2311 -0.0031 -0.4124
   54POPC   CN1 2757   5.124   1.002   0.342 -0.0347 -0.2705 -0.5199
   54POPC   CN2 2758   5.098   1.214   0.242 -0.1181  0.5663  0.2131
   54POPC   CN3 2759   4.951   1.036   0.189 -0.2203 -0.2345 -0.1372
   54POPC   NTM 2760   5.092   1.070   0.216 -0.4547  0.6080  0.0511
   54POPC    CA 2761   5.186   1.042   0.107 -0.5316 -0.5226  0.2584
   54POPC    CB 2762   5.201   0.907   0.038  0.1123 -0.0539 -0.5371
   54POPC    OA 2763   5.181   0.795   0.124  0.1075  0.1983 -0.2115
   54POPC     P 2764   5.170   0.660   0.036  0.0607 -0.0511  0.1726
   54POPC    OB 2765   5.295   0.649   3.947 -0.0342 -0.6333  0.1047
   54POPC    OC 2766   5.045   0.690   3.951 -0.0039 -0.3723  0.1514
   54POPC    OD 2767   5.151   0.571   0.169 -0.1704 -0.2718 -0.0078
   54POPC    CC 2768   5.037   0.609   0.247 -0.0829 -0.2216  0.0957
   54POPC    CD 2769   5.027   0.555   0.389  0.0566  0.1266  0.2390
   54POPC    OE 2770   5.120   0.595   0.490  0.3475  0.3516 -0.1191
   54POPC   C1A 2771   5.097   0.703   0.563  0.1937 -0.1280  0.5497
   54POPC    OF 2772   5.020   0.790   0.522 -0.6203 -0.9111  0.3662
   54POPC   C1B 2773   5.204   0.722   0.663  0.3163  0.0101  0.3925
   54POPC   C1C 2774   5.287   0.845   0.627  0.1918 -0.1060 -0.3087
   54POPC   C1D 2775   5.414   0.859   0.711  0.3109 -0.0468 -0.4991
   54POPC   C1E 2776   5.484   0.990   0.675 -0.2547  0.3729 -0.0846
   54POPC   C1F 2777   5.598   1.044   0.763  0.1705 -0.4586 -0.1179
   54POPC   C1G 2778   5.549   1.118   0.887  0.1934 -0.3105 -0.1976
   54POPC   C1H 2779   5.664   1.161   0.978 -0.0990  0.2273 -0.0777
   54POPC   C1I 2780   5.623   1.219   1.113  0.1460  0.7645 -0.2279
   54POPC   C1J 2781   5.707   1.215   1.216  0.2998  0.5778 -0.3589
   54POPC   C1K 2782   5.851   1.169   1.197  0.2152 -0.1778  0.7239
   54POPC   C1L 2783   5.951   1.225   1.299  0.5796 -0.0932  0.3233
   54POPC   C1M 2784   5.994   1.368   1.266  0.0963  0.0346  0.2420
   54POPC   C1N 2785   6.111   1.426   1.346  0.0241  0.3543  0.1200
   54POPC   C1O 2786   6.247   1.356   1.340  0.1105  0.5178  0.1712
   54POPC   C1P 2787   0.081   1.440   1.418  0.2027  0.2619  0.3300
   54POPC   C1Q 2788   0.031   1.488   1.555 -0.3067  0.4004  0.0990
   54POPC   C1R 2789   0.140   1.568   1.627 -0.3232  0.4432  0.0768
   54POPC    CE 2790   5.007   0.405   0.365  0.3041  0.1004  0.2018
   54POPC    OG 2791   4.870   0.383   0.331  0.3388 -0.0948  0.1906
   54POPC   C2A 2792   4.840   0.266   0.276  0.4018  0.0953 -0.2562
   54POPC    OH 2793   4.910   0.167   0.297 -0.0185 -0.2127 -0.2849
   54POPC   C2B 2794   4.698   0.241   0.242  0.3439 -0.0186  0.0676
   54POPC   C2C 2795   4.623   0.207   0.371  0.1417 -0.0400 -0.0550
   54POPC   C2D 2796   4.498   0.121   0.352 -0.1541  0.4087 -0.1489
   54POPC   C2E 2797   4.409   0.138   0.475  0.0914  0.1862  0.0584
   54POPC   C2F 2798   4.359   0.281   0.489  0.1018  0.1556  0.4252
   54POPC   C2G 2799   4.257   0.282   0.604 -0.1740 -0.0160  0.1819
   54POPC   C2H 2800   4.187   0.411   0.647 -0.2357  0.0359 -0.0698
   54POPC   C2I 2801   4.069   0.382   0.740 -0.4866  0.7192 -0.1731
   54POPC   C2J 2802   3.971   0.270   0.704  0.2935  0.0117 -0.1186
   54POPC   C2K 2803   3.868   0.329   0.607  0.2082 -0.0078 -0.0398
   54POPC   C2L 2804   3.771   0.231   0.541  0.1287  0.0099  0.0501
   54POPC   C2M 2805   3.829   0.113   0.463 -0.0582 -0.0995  0.0742
   54POPC   C2N 2806   3.719   0.038   0.388  0.1070 -0.0327 -0.2378
   54POPC   C2O 2807   3.766   6.200   0.333  0.0435 -0.2711  0.2936
   54POPC   C2P 2808   3.788   6.093   0.441 -0.3750  0.1480  0.8021
   55POPC   CN1 2809   1.725   0.768   0.001 -0.4834 -0.2703  0.1651
   55POPC   CN2 2810   1.633   0.953   0.125  0.2843  0.2425 -0.1004
   55POPC   CN3 2811   1.635   0.969   3.886  0.1250  0.3103  0.3115
   55POPC   NTM 2812   1.714   0.914   0.008  0.2142 -0.2046 -0.0029
   55POPC    CA 2813   1.851   0.968   0.007  0.0150  0.3114 -0.4293
   55POPC    CB 2814   1.884   1.111   0.047  0.6357  0.0938 -0.1474
   55POPC    OA 2815   1.839   1.169   0.171 -0.3318 -0.0991 -0.4034
   55POPC     P 2816   1.880   1.324   0.179  0.0917 -0.2269 -0.0409
   55POPC    OB 2817   1.822   1.372   0.307  0.7740  0.3713  0.0471
   55POPC    OC 2818   1.839   1.369   0.044  0.1575  0.4090  0.1486
   55POPC    OD 2819   2.039   1.306   0.197  0.0851  0.0676  0.3176
   55POPC    CC 2820   2.087   1.300   0.331  0.3209  0.2272  0.2410
   55POPC    CD 2821   2.236   1.271   0.348  0.2608 -0.2386 -0.0175
   55POPC    OE 2822   2.261   1.248   0.487  0.1958 -0.0559  0.0243
   55POPC   C1A 2823   2.365   1.172   0.519  0.3864  0.1536 -0.0958
   55POPC    OF 2824   2.426   1.112   0.431  1.0278  0.1256  0.3576
   55POPC   C1B 2825   2.385   1.152   0.664 -0.0244  0.1518 -0.0382
   55POPC   C1C 2826   2.531   1.189   0.694 -0.2056  0.5930  0.2977
   55POPC   C1D 2827   2.566   1.146   0.836  0.5755  0.2132 -0.0041
   55POPC   C1E 2828   2.716   1.152   0.862  0.6082 -0.0802 -0.1244
   55POPC   C1F 2829   2.757   1.120   1.006 -0.5084 -0.0732  0.2048
   55POPC   C1G 2830   2.750   0.973   1.048 -0.3111 -0.0662  0.2638
   55POPC   C1H 2831   2.760   0.943   1.198  0.5840  0.7664  0.3833
   55POPC   C1I 2832   2.632   0.987   1.268 -0.0530 -0.4284 -0.0051
   55POPC   C1J 2833   2.623   1.083   1.360 -0.1765  0.0811 -0.5457
   55POPC   C1K 2834   2.750   1.149   1.413 -0.7407  0.4891  0.3233
   55POPC   C1L 2835   2.751   1.168   1.565  0.0980  0.5085  0.3245
   55POPC   C1M 2836   2.776   1.032   1.631  0.0141  0.2472 -0.1789
   55POPC   C1N 2837   2.913   0.969   1.607 -0.1280  0.1293 -0.7142
   55POPC   C1O 2838   2.901   0.823   1.652 -0.4376  0.2982 -0.2448
   55POPC   C1P 2839   3.011   0.730   1.599 -1.1287 -0.5831 -0.1482
   55POPC   C1Q 2840   3.000   0.714   1.448  0.1125  0.2621 -0.3460
   55POPC   C1R 2841   2.869   0.637   1.427  0.1341  0.1177  0.0593
   55POPC    CE 2842   2.326   1.380   0.289  0.4918 -0.0848  0.6104
   55POPC    OG 2843   2.297   1.511   0.338  0.4777  0.0419  0.2676
   55POPC   C2A 2844   2.358   1.541   0.453 -0.2270 -0.5381  0.8037
   55POPC    OH 2845   2.470   1.496   0.474  0.3415  0.0581 -0.7392
   55POPC   C2B 2846   2.318   1.675   0.503 -0.1731  0.0329 -0.6257
   55POPC   C2C 2847   2.296   1.687   0.654 -0.3275  0.0944 -0.6535
   55POPC   C2D 2848   2.291   1.834   0.699  0.0913 -0.0799 -0.0304
   55POPC   C2E 2849   2.147   1.882   0.680  0.2188  0.2821 -0.0745
   55POPC   C2F 2850   2.102   1.994   0.774  0.0475  0.6440 -0.5774
   55POPC   C2G 2851   1.954   2.017   0.745 -0.2494 -0.4099  0.0060
   55POPC   C2H 2852   1.926   2.142   0.829 -0.0833 -0.0456 -0.4703
   55POPC   C2I 2853   1.776   2.166   0.847 -0.0279 -0.0358 -0.0049
   55POPC   C2J 2854   1.694   2.066   0.928  0.5828 -0.3405  0.2405
   55POPC   C2K 2855   1.670   2.109   1.073 -0.0638 -0.0559  0.0552
   55POPC   C2L 2856   1.587   1.992   1.126  0.4521 -0.5515 -0.2138
   55POPC   C2M 2857   1.579   1.981   1.279 -0.0254 -0.1176 -0.2044
   55POPC   C2N 2858   1.715   1.991   1.349 -0.2942  0.5391  0.2307
   55POPC   C2O 2859   1.697   1.984   1.501 -0.5773  0.3083  0.1897
   55POPC   C2P 2860   1.671   1.838   1.537 -0.0764  0.0600 -0.4499
   56POPC   CN1 2861   2.607   0.978   3.903 -0.1458  0.0947 -0.2881
   56POPC   CN2 2862   2.610   0.750   3.844 -0.2459  0.0222 -0.5312
   56POPC   CN3 2863   2.673   0.912   3.678  0.4674 -0.4425 -0.0016
   56POPC   NTM 2864   2.584   0.885   3.791 -0.1182  0.1286 -0.3222
   56POPC    CA 2865   2.446   0.881   3.741 -0.2171 -0.3639 -0.0193
   56POPC    CB 2866   2.323   0.914   3.826  0.0388  0.3160  0.0855
   56POPC    OA 2867   2.305   0.846   3.950  0.2820  0.1439  0.0269
   56POPC     P 2868   2.251   0.941   0.079 -0.0820  0.0765 -0.0842
   56POPC    OB 2869   2.124   0.884   0.131  0.4208 -0.5840  0.4328
   56POPC    OC 2870   2.265   1.082   0.035 -0.2680  0.0286 -0.2983
   56POPC    OD 2871   2.381   0.891   0.159  0.0283  0.3007 -0.1225
   56POPC    CC 2872   2.340   0.819   0.276  0.2212  0.3316 -0.0347
   56POPC    CD 2873   2.448   0.741   0.350 -0.4441  0.2508  0.8580
   56POPC    OE 2874   2.406   0.657   0.459 -0.1722 -0.2118  0.6074
   56POPC   C1A 2875   2.404   0.525   0.451 -0.1806 -0.1814  0.0692
   56POPC    OF 2876   2.404   0.468   0.341 -0.2923 -0.0633  0.0086
   56POPC   C1B 2877   2.391   0.448   0.577  0.2589 -0.2393  0.0812
   56POPC   C1C 2878   2.511   0.363   0.620  0.2286 -0.3330 -0.0184
   56POPC   C1D 2879   2.481   0.297   0.755 -0.0942 -0.2650 -0.0566
   56POPC   C1E 2880   2.611   0.247   0.816  0.1561  0.5434  0.0837
   56POPC   C1F 2881   2.585   0.189   0.956  0.1472 -0.2055 -0.2210
   56POPC   C1G 2882   2.713   0.153   1.031  0.0082  0.0693  0.1541
   56POPC   C1H 2883   2.682   0.152   1.181  0.1933  0.0230  0.1923
   56POPC   C1I 2884   2.777   0.061   1.258 -0.2312 -0.6176 -0.0346
   56POPC   C1J 2885   2.769   0.067   1.391  0.3346 -0.0656 -0.0182
   56POPC   C1K 2886   2.682   0.169   1.464 -0.2517 -0.3755 -0.2668
   56POPC   C1L 2887   2.730   0.207   1.605  0.1200 -0.4926 -0.3622
   56POPC   C1M 2888   2.669   0.341   1.645  0.3839 -0.4447 -0.1207
   56POPC   C1N 2889   2.686   0.392   1.789  0.0145 -0.2326 -0.1505
   56POPC   C1O 2890   2.832   0.424   1.822  0.1868 -0.9769 -0.1634
   56POPC   C1P 2891   2.849   0.490   1.959 -0.2213  0.4469 -0.7772
   56POPC   C1Q 2892   2.985   0.557   1.973 -0.0614 -0.0733  0.2971
   56POPC   C1R 2893   3.102   0.459   1.974 -0.6224 -0.7558 -0.3556
   56POPC    CE 2894   2.546   0.838   0.417  0.1692  0.2057  0.0310
   56POPC    OG 2895   2.673   0.786   0.459  0.1955  0.1052 -0.1715
   56POPC   C2A 2896   2.735   0.853   0.556  0.1258 -0.0887  0.0069
   56POPC    OH 2897   2.711   0.971   0.578  0.1733 -0.0638 -0.0737
   56POPC   C2B 2898   2.856   0.784   0.606 -0.0238 -0.5389 -0.2476
   56POPC   C2C 2899   2.805   0.711   0.730  0.3822 -0.4630 -0.0334
   56POPC   C2D 2900   2.915   0.654   0.819  0.4407 -0.2568  0.0263
   56POPC   C2E 2901   2.857   0.558   0.922 -0.0559 -0.1151 -0.1186
   56POPC   C2F 2902   2.953   0.515   1.033 -0.1462  0.0775  0.0347
   56POPC   C2G 2903   3.055   0.412   0.984  0.4399  0.5625  0.2260
   56POPC   C2H 2904   3.161   0.370   1.086 -0.1165 -0.6443  0.3247
   56POPC   C2I 2905   3.233   0.250   1.024  0.1583 -0.2010 -0.2184
   56POPC   C2J 2906   3.339   0.192   1.117  0.1647 -0.4976 -0.4079
   56POPC   C2K 2907   3.333   0.040   1.110 -0.0644 -0.4770 -0.6547
   56POPC   C2L 2908   3.201   6.281   1.166  0.0292 -0.0823 -0.0259
   56POPC   C2M 2909   3.212   6.243   1.314 -0.4244 -0.4793 -0.0917
   56POPC   C2N 2910   3.081   6.180   1.362 -0.6607 -0.0610 -0.1808
   56POPC   C2O 2911   3.089   6.166   1.514 -0.6645 -0.6914 -0.2363
   56POPC   C2P 2912   3.195   6.062   1.552  0.0250  0.0522 -0.0911
   57POPC   CN1 2913   2.385   0.541   0.039 -0.2023 -0.0116  0.2206
   57POPC   CN2 2914   2.174   0.545   0.142 -0.1975  0.4174  0.0227
   57POPC   CN3 2915   2.278   0.339   0.076 -0.2195 -0.1787  0.1403
   57POPC   NTM 2916   2.252   0.478   0.037 -0.1628 -0.1005  0.3762
   57POPC    CA 2917   2.190   0.494   3.893  0.7070 -0.5470 -0.0966
   57POPC    CB 2918   2.065   0.411   3.863  0.2669  0.1386 -0.1894
   57POPC    OA 2919   1.962   0.434   3.960  0.3176 -0.2074 -0.0514
   57POPC     P 2920   1.830   0.351   3.922  0.1293 -0.0049  0.1625
   57POPC    OB 2921   1.882   0.215   3.949  0.4224  0.0531 -0.0988
   57POPC    OC 2922   1.777   0.400   3.793 -0.4435  0.9670  0.7545
   57POPC    OD 2923   1.729   0.405   0.047  0.7913  0.3619  0.5798
   57POPC    CC 2924   1.745   0.334   0.170  0.6543 -0.8044 -0.0562
   57POPC    CD 2925   1.853   0.393   0.261 -0.0432  0.0869  0.2096
   57POPC    OE 2926   1.884   0.324   0.383 -0.2963 -0.4274 -0.0172
   57POPC   C1A 2927   2.014   0.299   0.396 -0.2442  0.1453  0.5786
   57POPC    OF 2928   2.081   0.285   0.294 -0.4339 -0.4864  0.5385
   57POPC   C1B 2929   2.035   0.230   0.525  0.7969 -0.2565  0.2050
   57POPC   C1C 2930   2.041   0.331   0.640  0.3824  0.1154 -0.0944
   57POPC   C1D 2931   2.056   0.275   0.782  0.1597  0.1199 -0.0698
   57POPC   C1E 2932   2.049   0.392   0.880 -0.9695 -0.0240  0.0357
   57POPC   C1F 2933   2.032   0.341   1.023 -0.7062 -0.2105  0.0013
   57POPC   C1G 2934   2.019   0.464   1.114 -0.3948 -0.2490  0.0981
   57POPC   C1H 2935   1.998   0.425   1.260 -0.0528  0.0093  0.2174
   57POPC   C1I 2936   1.937   0.544   1.334  0.0361  0.1069  0.1331
   57POPC   C1J 2937   1.917   0.527   1.464  0.1911  0.1104  0.1566
   57POPC   C1K 2938   1.968   0.394   1.521 -0.3039 -0.0784  0.1567
   57POPC   C1L 2939   1.990   0.427   1.669 -0.3431 -0.2334  0.1975
   57POPC   C1M 2940   2.078   0.325   1.742 -0.0906  0.2673  0.6025
   57POPC   C1N 2941   2.108   0.358   1.888 -0.4199  0.3396  0.6548
   57POPC   C1O 2942   2.005   0.311   1.992 -0.5842 -0.2585  0.2228
   57POPC   C1P 2943   2.014   0.384   2.126  0.2399  0.4264 -0.1896
   57POPC   C1Q 2944   1.905   0.324   2.216  0.6599  0.3762  0.2899
   57POPC   C1R 2945   1.843   0.438   2.296  0.2738  0.4766 -0.1469
   57POPC    CE 2946   1.813   0.540   0.277 -0.2485  0.0306  0.2196
   57POPC    OG 2947   1.905   0.615   0.358 -0.0518  0.1968 -0.1549
   57POPC   C2A 2948   1.889   0.744   0.383  0.5851  0.3557 -0.5573
   57POPC    OH 2949   1.808   0.814   0.322  0.3132  0.6946  0.1871
   57POPC   C2B 2950   2.002   0.790   0.467  0.4434 -0.1736 -0.0756
   57POPC   C2C 2951   1.948   0.760   0.607 -0.2574  0.4625 -0.2026
   57POPC   C2D 2952   2.041   0.833   0.705 -0.1976  0.0322  0.0651
   57POPC   C2E 2953   2.176   0.761   0.719 -0.1044  0.2423  0.2454
   57POPC   C2F 2954   2.266   0.817   0.829  0.0818  0.7076 -0.1406
   57POPC   C2G 2955   2.394   0.734   0.835 -0.0275  0.5391 -0.1543
   57POPC   C2H 2956   2.381   0.633   0.949 -0.3740  0.2574 -0.4381
   57POPC   C2I 2957   2.501   0.623   1.043 -0.6583  0.1698 -0.0794
   57POPC   C2J 2958   2.503   0.515   1.151  0.4743  0.4739  0.2187
   57POPC   C2K 2959   2.430   0.528   1.285 -0.2339 -0.3193 -0.0805
   57POPC   C2L 2960   2.494   0.639   1.368 -0.4770 -0.0950 -0.1907
   57POPC   C2M 2961   2.439   0.635   1.511 -0.3682  0.8946 -0.1201
   57POPC   C2N 2962   2.496   0.741   1.606  0.5729 -0.0112  0.3393
   57POPC   C2O 2963   2.403   0.747   1.727 -0.6860  0.1798 -0.6193
   57POPC   C2P 2964   2.391   0.614   1.802 -0.0818  0.4864  0.0299
   58POPC   CN1 2965   2.446   3.228   0.215 -0.0018  0.1103  0.2200
   58POPC   CN2 2966   2.468   3.065   0.039  0.6537  0.0295 -0.4923
   58POPC   CN3 2967   2.648   3.104   0.163 -0.1639 -0.2659 -0.7952
   58POPC   NTM 2968   2.533   3.177   0.109 -0.2141  0.2500 -0.0234
   58POPC    CA 2969   2.579   3.272   0.007 -0.6694  0.2983 -0.1878
   58POPC    CB 2970   2.495   3.369   3.912 -0.6181  0.4030 -0.1182
   58POPC    OA 2971   2.415   3.456   0.004 -0.2867  0.3793  0.2421
   58POPC     P 2972   2.330   3.556   3.898 -0.2347  0.1823 -0.0147
   58POPC    OB 2973   2.281   3.469   3.788 -0.4496  0.4342 -0.1197
   58POPC    OC 2974   2.421   3.669   3.872 -0.0479  0.0815  0.1917
   58POPC    OD 2975   2.209   3.582   0.013  0.1601 -0.3695  0.5955
   58POPC    CC 2976   2.116   3.475   3.986 -0.2523  0.0973 -0.2115
   58POPC    CD 2977   2.094   3.397   0.127 -0.0160  0.1708 -0.1271
   58POPC    OE 2978   2.024   3.274   0.107  0.0463  0.0775  0.2198
   58POPC   C1A 2979   2.085   3.170   0.050 -0.0706 -0.1506  0.5058
   58POPC    OF 2980   2.205   3.184   0.030 -0.3032  0.6280 -0.4501
   58POPC   C1B 2981   2.010   3.044   0.031 -0.1016 -0.0436 -0.1007
   58POPC   C1C 2982   2.042   2.949   0.146 -0.1181  0.0025 -0.0582
   58POPC   C1D 2983   1.959   2.995   0.266  0.6087  0.2155  0.3681
   58POPC   C1E 2984   1.954   2.907   0.392 -0.2607  0.3683  0.4437
   58POPC   C1F 2985   1.901   2.985   0.513  0.3230  0.4533  0.6479
   58POPC   C1G 2986   1.894   2.888   0.632  0.8819 -0.1529  0.1943
   58POPC   C1H 2987   1.855   2.956   0.763  0.3830  0.0515 -0.0576
   58POPC   C1I 2988   1.703   2.944   0.778  0.4304  0.2213  0.5697
   58POPC   C1J 2989   1.656   2.919   0.900 -0.6307  0.5770  0.2463
   58POPC   C1K 2990   1.739   2.878   1.023 -0.0170 -0.2274 -0.4210
   58POPC   C1L 2991   1.655   2.791   1.115  0.5083  0.0945  0.3696
   58POPC   C1M 2992   1.743   2.722   1.220  0.3184 -0.4281  0.1920
   58POPC   C1N 2993   1.662   2.660   1.334 -0.0784 -0.0809  0.1044
   58POPC   C1O 2994   1.760   2.587   1.427  0.1969 -0.0097 -0.1285
   58POPC   C1P 2995   1.684   2.508   1.534  0.2467  0.0114 -0.0777
   58POPC   C1Q 2996   1.590   2.406   1.468  0.2444 -0.0525  0.0240
   58POPC   C1R 2997   1.515   2.341   1.584 -0.5498  0.4277 -0.2112
   58POPC    CE 2998   2.030   3.505   0.214 -0.0304  0.1368 -0.0952
   58POPC    OG 2999   2.025   3.488   0.356 -0.3245  0.3973 -0.0726
   58POPC   C2A 3000   2.137   3.519   0.421  0.3409 -0.5987 -0.7202
   58POPC    OH 3001   2.223   3.592   0.371  0.2984 -0.2915 -0.3453
   58POPC   C2B 3002   2.129   3.483   0.564  0.5925  0.0431 -0.5428
   58POPC   C2C 3003   2.186   3.344   0.590  0.1126  0.0078  0.3882
   58POPC   C2D 3004   2.124   3.309   0.725 -0.3206 -0.0717  0.1710
   58POPC   C2E 3005   2.185   3.180   0.782 -0.4518 -0.3377 -0.2826
   58POPC   C2F 3006   2.140   3.144   0.924 -0.0312  0.4757  0.0636
   58POPC   C2G 3007   2.221   3.026   0.978  0.4566  0.8222  0.0994
   58POPC   C2H 3008   2.160   2.980   1.111  0.3212  0.4480 -0.0902
   58POPC   C2I 3009   2.246   2.895   1.204 -0.5009 -0.3413 -0.0410
   58POPC   C2J 3010   2.164   2.855   1.327 -0.3573 -0.2156  0.0962
   58POPC   C2K 3011   2.247   2.751   1.403  0.0327  0.0187 -0.0034
   58POPC   C2L 3012   2.161   2.693   1.516 -0.4346  0.0565 -0.3352
   58POPC   C2M 3013   2.241   2.584   1.588 -0.1684  0.3048 -0.2502
   58POPC   C2N 3014   2.180   2.529   1.717 -0.0561 -0.1397 -0.3854
   58POPC   C2O 3015   2.042   2.463   1.708 -0.1342 -0.1139  0.4732
   58POPC   C2P 3016   2.005   2.432   1.853 -0.6374 -0.0253  0.3660
   59POPC   CN1 3017   2.248   2.260   3.789  0.0838  0.0150  0.3860
   59POPC   CN2 3018   2.442   2.140   3.741 -0.2315  0.4542 -0.3496
   59POPC   CN3 3019   2.435   2.240   3.951  1.1795  0.2263 -0.4887
   59POPC   NTM 3020   2.394   2.260   3.811  0.1729  0.5053 -0.1580
   59POPC    CA 3021   2.462   2.374   3.748  0.5473  0.1019 -0.4922
   59POPC    CB 3022   2.446   2.517   3.799  0.2682  0.0413 -0.4045
   59POPC    OA 3023   2.311   2.565   3.800  0.3420  0.2472 -0.0677
   59POPC     P 3024   2.290   2.652   3.934  0.0293 -0.1542  0.1445
   59POPC    OB 3025   2.170   2.727   3.890  0.4823  0.2749 -0.3811
   59POPC    OC 3026   2.414   2.718   3.981  0.3356 -0.7113  0.1197
   59POPC    OD 3027   2.248   2.529   0.041  0.0854 -0.4023 -0.1484
   59POPC    CC 3028   2.184   2.583   0.157  0.8107  0.1918 -0.0148
   59POPC    CD 3029   2.123   2.480   0.253  0.3368  0.2655 -0.2358
   59POPC    OE 3030   2.076   2.532   0.377  0.4365  0.2676 -0.1989
   59POPC   C1A 3031   1.986   2.475   0.456  0.0007  0.4588 -0.5486
   59POPC    OF 3032   1.923   2.375   0.422  0.5268  0.1860 -0.7304
   59POPC   C1B 3033   1.971   2.526   0.594  0.0747 -0.4914 -0.1810
   59POPC   C1C 3034   2.060   2.475   0.707 -0.0539 -0.3032  0.0047
   59POPC   C1D 3035   2.028   2.547   0.838  0.5810  0.1260 -0.0707
   59POPC   C1E 3036   2.095   2.470   0.952  0.1938  0.0867  0.1356
   59POPC   C1F 3037   2.031   2.530   1.077 -0.2495 -0.2356  0.0680
   59POPC   C1G 3038   2.099   2.470   1.200 -0.0918 -0.0976  0.0499
   59POPC   C1H 3039   2.056   2.324   1.221  0.3454 -0.1532  0.5788
   59POPC   C1I 3040   2.134   2.265   1.338  0.5508  0.0390  0.5407
   59POPC   C1J 3041   2.198   2.148   1.339  0.0010 -0.2709  0.0492
   59POPC   C1K 3042   2.201   2.052   1.220  0.1635 -0.0081 -0.1578
   59POPC   C1L 3043   2.335   1.979   1.219  0.1828  0.0279 -0.1933
   59POPC   C1M 3044   2.338   1.866   1.115  0.1707  0.1646 -0.3433
   59POPC   C1N 3045   2.467   1.784   1.110  0.1254  0.0726 -0.0682
   59POPC   C1O 3046   2.468   1.631   1.108 -0.1208  0.0622  0.3922
   59POPC   C1P 3047   2.409   1.582   1.239 -0.1414  0.3220  0.4806
   59POPC   C1Q 3048   2.386   1.431   1.224 -0.1866  0.3796 -0.0383
   59POPC   C1R 3049   2.350   1.356   1.352 -0.0855  0.0023 -0.2308
   59POPC    CE 3050   2.228   2.370   0.272 -0.4511 -0.3438  0.6534
   59POPC    OG 3051   2.340   2.392   0.358 -0.2167  0.3885  0.1672
   59POPC   C2A 3052   2.429   2.295   0.377 -0.4310  0.2331  0.3834
   59POPC    OH 3053   2.431   2.200   0.299  0.2318  0.4775  0.0936
   59POPC   C2B 3054   2.512   2.308   0.499  0.2323 -0.2477 -0.0063
   59POPC   C2C 3055   2.426   2.291   0.624 -0.1188  0.2790 -0.1718
   59POPC   C2D 3056   2.495   2.313   0.759  0.0379 -0.0290 -0.2003
   59POPC   C2E 3057   2.599   2.205   0.789 -0.1181 -0.0842  0.1396
   59POPC   C2F 3058   2.621   2.216   0.940 -0.8981 -0.3785  0.2810
   59POPC   C2G 3059   2.717   2.110   0.995  0.5784  0.7778  0.0138
   59POPC   C2H 3060   2.763   2.152   1.135 -0.2777  0.6257  0.3501
   59POPC   C2I 3061   2.811   2.042   1.230  0.1347  0.3915 -0.1284
   59POPC   C2J 3062   2.963   2.062   1.217  0.2416 -0.4244 -0.2062
   59POPC   C2K 3063   3.017   1.951   1.307  0.1214  0.1812  0.6296
   59POPC   C2L 3064   3.169   1.935   1.300  0.0887  0.0711  0.1635
   59POPC   C2M 3065   3.218   1.891   1.162 -0.5907 -0.0696 -0.0348
   59POPC   C2N 3066   3.370   1.879   1.169 -0.5764  0.3580  0.3838
   59POPC   C2O 3067   3.415   1.803   1.044  0.1481 -0.3630  1.0638
   59POPC   C2P 3068   3.562   1.764   1.060  0.3046 -0.2439 -0.0026
   60POPC   CN1 3069   1.836   4.948   0.650  0.1737  0.2489 -0.5320
   60POPC   CN2 3070   1.601   4.890   0.604 -0.2606  0.0761  0.1120
   60POPC   CN3 3071   1.765   4.732   0.706 -0.0178  0.3159 -0.4179
   60POPC   NTM 3072   1.740   4.843   0.612 -0.1205  0.4189 -0.2704
   60POPC    CA 3073   1.759   4.779   0.480  0.2503 -0.1550  0.0569
   60POPC    CB 3074   1.858   4.840   0.380  0.0898 -0.1979 -0.1279
   60POPC    OA 3075   1.817   4.971   0.342  0.2353 -0.0172  0.3233
   60POPC     P 3076   1.926   5.042   0.247 -0.0950  0.0078 -0.0392
   60POPC    OB 3077   1.861   5.113   0.134  0.6036 -0.0085 -0.4538
   60POPC    OC 3078   2.031   4.947   0.207 -0.1792  0.2995 -0.9893
   60POPC    OD 3079   1.983   5.150   0.352 -0.0939 -0.4973  0.4848
   60POPC    CC 3080   1.887   5.253   0.380  0.2698  0.3230 -1.1182
   60POPC    CD 3081   1.906   5.310   0.521 -0.0551  0.4610 -1.1299
   60POPC    OE 3082   1.796   5.371   0.590  0.1697  0.1138 -0.4611
   60POPC   C1A 3083   1.684   5.308   0.623  0.1072  0.3886 -0.1511
   60POPC    OF 3084   1.674   5.189   0.596  0.0889  0.2275  0.5380
   60POPC   C1B 3085   1.578   5.398   0.675 -0.1038 -0.1682  0.3912
   60POPC   C1C 3086   1.439   5.337   0.694 -0.1339 -0.2469 -0.0882
   60POPC   C1D 3087   1.350   5.436   0.769 -0.1912 -0.0942 -0.3553
   60POPC   C1E 3088   1.226   5.370   0.830 -0.1382  0.3097  0.1937
   60POPC   C1F 3089   1.247   5.254   0.928  0.1098 -0.0621 -0.2947
   60POPC   C1G 3090   1.302   5.315   1.057  0.0543 -0.1100 -0.2481
   60POPC   C1H 3091   1.351   5.213   1.160  0.7565  0.2583 -0.2115
   60POPC   C1I 3092   1.404   5.271   1.292  0.4215  0.5605 -0.2079
   60POPC   C1J 3093   1.345   5.260   1.411  0.0940  0.5371 -0.3684
   60POPC   C1K 3094   1.221   5.172   1.424  0.5056 -0.0376 -0.2343
   60POPC   C1L 3095   1.161   5.156   1.564 -0.0219  0.0876 -0.4413
   60POPC   C1M 3096   1.269   5.121   1.667 -0.4744 -0.2089 -0.0665
   60POPC   C1N 3097   1.209   5.108   1.807  0.4261 -0.6329  0.2873
   60POPC   C1O 3098   1.326   5.073   1.899  0.3240  0.1771  0.7389
   60POPC   C1P 3099   1.436   5.179   1.911  0.3951  0.1877  0.0318
   60POPC   C1Q 3100   1.519   5.183   2.039  0.1906  0.4190  0.1590
   60POPC   C1R 3101   1.651   5.109   2.017 -0.2321 -0.2679 -0.0911
   60POPC    CE 3102   2.035   5.391   0.517 -0.0547  0.5190 -0.0576
   60POPC    OG 3103   2.072   5.477   0.626  0.5180 -0.2773  0.3971
   60POPC   C2A 3104   2.200   5.512   0.632  0.5108 -0.2983  0.6771
   60POPC    OH 3105   2.293   5.456   0.574  0.1556  0.0342 -0.2393
   60POPC   C2B 3106   2.218   5.622   0.729  0.0524  0.0970  0.3245
   60POPC   C2C 3107   2.207   5.576   0.875 -0.3002  0.2282  0.3380
   60POPC   C2D 3108   2.239   5.682   0.981 -0.0094  0.0738  0.4044
   60POPC   C2E 3109   2.219   5.609   1.113  0.1592 -0.3408  0.2023
   60POPC   C2F 3110   2.261   5.706   1.224  0.2113 -0.3542  0.1948
   60POPC   C2G 3111   2.170   5.713   1.347 -0.1501 -0.4408 -0.0675
   60POPC   C2H 3112   2.233   5.815   1.442 -0.0536 -0.8799  0.3430
   60POPC   C2I 3113   2.156   5.846   1.571  0.1315  0.0482  0.2331
   60POPC   C2J 3114   2.221   5.954   1.658  0.1922  0.1490  0.0631
   60POPC   C2K 3115   2.205   6.094   1.597 -0.3902  0.0436 -0.0247
   60POPC   C2L 3116   2.308   6.200   1.635 -0.1632  0.0073 -0.5375
   60POPC   C2M 3117   2.311   0.027   1.546  0.6299  0.2485 -0.1903
   60POPC   C2N 3118   2.308   0.008   1.394  0.0696 -0.2101 -0.1280
   60POPC   C2O 3119   2.277   0.129   1.305 -0.1624 -0.2421 -0.0913
   60POPC   C2P 3120   2.267   0.094   1.157  0.2073 -0.1850 -0.1304
   61POPC   CN1 3121   4.795   6.132   0.276 -0.5311  0.2079  0.2563
   61POPC   CN2 3122   4.753   6.197   0.052  0.1471 -0.3908  0.1758
   61POPC   CN3 3123   4.605   6.051   0.159 -0.1799  0.6920  0.2509
   61POPC   NTM 3124   4.748   6.084   0.145  0.0650 -0.3369  0.2373
   61POPC    CA 3125   4.828   5.971   0.096  0.2813 -0.2332  0.3537
   61POPC    CB 3126   4.980   5.975   0.119  0.3079  0.0118  0.1363
   61POPC    OA 3127   5.061   6.070   0.049 -0.0694  0.4676  0.3092
   61POPC     P 3128   5.202   6.103   0.119  0.2185 -0.0359 -0.0249
   61POPC    OB 3129   5.280   6.186   0.023  0.3731  0.0500  0.1730
   61POPC    OC 3130   5.255   5.985   0.190  0.1257  0.1435  0.3453
   61POPC    OD 3131   5.125   6.198   0.223  0.1285 -0.0633 -0.0669
   61POPC    CC 3132   5.217   6.263   0.311 -0.4690  0.3572  0.2549
   61POPC    CD 3133   5.153   0.025   0.437 -0.0229  0.5814  0.3757
   61POPC    OE 3134   5.246   0.077   0.533 -0.1287  0.4058  0.5721
   61POPC   C1A 3135   5.335   0.170   0.502  0.3396 -0.1900  0.1115
   61POPC    OF 3136   5.347   0.219   0.390 -0.2230  0.7208  0.4394
   61POPC   C1B 3137   5.423   0.212   0.614  0.6911 -0.1851 -0.1634
   61POPC   C1C 3138   5.372   0.330   0.697  0.2424 -0.4353 -0.0778
   61POPC   C1D 3139   5.481   0.372   0.795 -0.3929  0.1366  0.3939
   61POPC   C1E 3140   5.519   0.262   0.895 -0.7343 -0.0984  0.2650
   61POPC   C1F 3141   5.579   0.327   1.020  0.1360 -0.1667 -0.1138
   61POPC   C1G 3142   5.620   0.212   1.112  0.4809 -0.0048 -0.0626
   61POPC   C1H 3143   5.653   0.283   1.244  0.3743  0.2505 -0.1720
   61POPC   C1I 3144   5.657   0.186   1.363 -0.3569  0.1304 -0.2382
   61POPC   C1J 3145   5.614   0.235   1.479 -0.4188  0.4859 -0.4080
   61POPC   C1K 3146   5.568   0.380   1.493  0.0250  0.5665  0.3120
   61POPC   C1L 3147   5.455   0.381   1.596 -0.3877 -0.2898 -0.1173
   61POPC   C1M 3148   5.397   0.523   1.605  0.2358 -0.0670  0.5009
   61POPC   C1N 3149   5.283   0.532   1.705 -0.2340  0.7013 -0.0956
   61POPC   C1O 3150   5.207   0.660   1.667 -0.1794  0.5728 -0.6287
   61POPC   C1P 3151   5.091   0.637   1.570 -0.0817 -0.8125 -0.4386
   61POPC   C1Q 3152   5.033   0.777   1.548  0.3462 -0.4849  0.4602
   61POPC   C1R 3153   4.944   0.775   1.423  0.1687  0.0640  0.5767
   61POPC    CE 3154   5.094   6.198   0.504  0.3986  0.3236  0.2733
   61POPC    OG 3155   5.183   6.090   0.535  0.5439  0.4303  0.2288
   61POPC   C2A 3156   5.139   5.965   0.521  0.1949  0.6145 -0.3835
   61POPC    OH 3157   5.023   5.940   0.487  0.1400  0.3372 -0.0021
   61POPC   C2B 3158   5.241   5.861   0.546 -0.2053  0.3522  0.1816
   61POPC   C2C 3159   5.205   5.751   0.646  0.3894  0.2021  0.2343
   61POPC   C2D 3160   5.331   5.668   0.673 -0.1619 -0.7045  0.0827
   61POPC   C2E 3161   5.316   5.576   0.795 -0.8573 -0.8355 -0.0969
   61POPC   C2F 3162   5.280   5.656   0.920 -0.1886 -0.1010 -0.3626
   61POPC   C2G 3163   5.272   5.566   1.043 -0.4043 -0.1962 -0.4451
   61POPC   C2H 3164   5.235   5.641   1.171  0.7458 -0.0677 -0.1693
   61POPC   C2I 3165   5.270   5.562   1.297  0.2406 -0.6854 -0.4069
   61POPC   C2J 3166   5.172   5.456   1.348 -0.5889  0.1978 -0.1542
   61POPC   C2K 3167   5.221   5.419   1.488 -0.2614  0.4043 -0.2130
   61POPC   C2L 3168   5.136   5.303   1.542 -0.0614  0.2991 -0.1237
   61POPC   C2M 3169   5.174   5.263   1.685 -0.5415  0.1217 -0.0465
   61POPC   C2N 3170   5.125   5.357   1.794 -0.3284  0.0742  0.0906
   61POPC   C2O 3171   4.973   5.379   1.787 -0.3336 -0.1688 -0.5980
   61POPC   C2P 3172   4.916   5.434   1.918  0.3108 -0.1554 -0.3186
   62POPC   CN1 3173   4.131   2.522   0.101  0.3602 -0.0102  0.4301
   62POPC   CN2 3174   4.215   2.411   3.909 -0.3772  0.1536 -0.6649
   62POPC   CN3 3175   4.239   2.655   3.920 -0.3847 -0.0894  0.2855
   62POPC   NTM 3176   4.153   2.539   3.945 -0.3577 -0.1048  0.3063
   62POPC    CA 3177   4.028   2.562   3.870 -0.0360  0.2027 -0.1418
   62POPC    CB 3178   3.903   2.474   3.874  0.4491 -0.5036 -0.1392
   62POPC    OA 3179   3.848   2.459   0.016 -0.0627  0.3278 -0.2492
   62POPC     P 3180   3.693   2.417   0.007 -0.0365  0.1654  0.0406
   62POPC    OB 3181   3.640   2.505   3.890  0.1152 -0.3146 -0.4393
   62POPC    OC 3182   3.621   2.420   0.136 -0.1825  0.1280 -0.0400
   62POPC    OD 3183   3.703   2.265   3.944 -0.0003  0.0525  0.3793
   62POPC    CC 3184   3.729   2.175   0.064  0.0699 -0.3065  0.0692
   62POPC    CD 3185   3.777   2.032   0.040 -0.2986 -0.3378 -0.4879
   62POPC    OE 3186   3.727   1.927   0.123 -0.0393  0.1321  0.2778
   62POPC   C1A 3187   3.604   1.876   0.120  0.0029  0.0524 -0.2087
   62POPC    OF 3188   3.523   1.921   0.039 -0.2063 -0.1686 -0.1260
   62POPC   C1B 3189   3.573   1.771   0.220  0.0625  0.1366 -0.1026
   62POPC   C1C 3190   3.676   1.658   0.217 -0.3819 -0.2618 -0.4586
   62POPC   C1D 3191   3.624   1.553   0.316 -0.2382  0.3041  0.2301
   62POPC   C1E 3192   3.686   1.415   0.295 -0.4691  0.2485 -0.1039
   62POPC   C1F 3193   3.613   1.300   0.365 -0.0471  0.1105  0.1140
   62POPC   C1G 3194   3.617   1.174   0.278  0.0123  0.0584  0.1922
   62POPC   C1H 3195   3.558   1.054   0.353 -0.1384 -0.0459 -0.0938
   62POPC   C1I 3196   3.579   0.913   0.297  0.1977  0.0206 -0.1410
   62POPC   C1J 3197   3.679   0.838   0.340  0.0453  0.0574  0.2779
   62POPC   C1K 3198   3.774   0.899   0.443  0.5334  0.1950 -0.2533
   62POPC   C1L 3199   3.777   0.825   0.577  0.2960 -0.2231 -0.4776
   62POPC   C1M 3200   3.864   0.891   0.685 -0.3318  0.1758 -0.2063
   62POPC   C1N 3201   3.795   1.009   0.752 -0.0090  0.3055 -0.1048
   62POPC   C1O 3202   3.892   1.101   0.827  0.4305 -0.1530 -0.1073
   62POPC   C1P 3203   3.993   1.181   0.744 -0.0958  0.1430 -0.4696
   62POPC   C1Q 3204   3.927   1.287   0.655 -0.6575 -0.0557 -0.2924
   62POPC   C1R 3205   4.022   1.353   0.555 -0.6905  0.6857  0.1601
   62POPC    CE 3206   3.929   2.044   0.041 -0.3153 -0.1383  0.2623
   62POPC    OG 3207   3.987   2.058   0.171  0.1816 -0.6520  0.0960
   62POPC   C2A 3208   4.093   2.137   0.187 -0.4441  0.1802  0.1731
   62POPC    OH 3209   4.157   2.189   0.096 -0.1562 -0.2766  0.1100
   62POPC   C2B 3210   4.103   2.184   0.327 -0.0098  0.1526  0.1517
   62POPC   C2C 3211   4.203   2.092   0.398 -0.0674 -0.1325 -0.1322
   62POPC   C2D 3212   4.206   2.113   0.549 -0.3589 -0.2790 -0.1055
   62POPC   C2E 3213   4.351   2.104   0.599 -0.3319 -0.2311 -0.1743
   62POPC   C2F 3214   4.354   2.083   0.750  1.4391 -0.9895 -0.2888
   62POPC   C2G 3215   4.273   1.956   0.777 -0.0848  0.0484  0.1578
   62POPC   C2H 3216   4.208   1.944   0.915 -0.3064 -0.1710  0.0340
   62POPC   C2I 3217   4.162   1.801   0.946  0.2143 -0.3225  0.1163
   62POPC   C2J 3218   4.055   1.784   1.054 -0.2674  0.1092 -0.2821
   62POPC   C2K 3219   4.020   1.636   1.039  0.4074 -0.0760 -0.0759
   62POPC   C2L 3220   3.921   1.595   1.147  0.1333  0.1381 -0.2462
   62POPC   C2M 3221   3.882   1.448   1.135 -0.0381  0.1567  0.0539
   62POPC   C2N 3222   3.861   1.386   1.273  0.2831  0.6226  0.3126
   62POPC   C2O 3223   3.737   1.448   1.337  0.1642 -0.2861  0.9786
   62POPC   C2P 3224   3.604   1.389   1.290  0.2123  0.1276  0.3072
   63POPC   CN1 3225   1.408   3.109   0.545  0.1694  0.0745  0.1817
   63POPC   CN2 3226   1.347   2.892   0.439 -0.3228 -0.2872 -0.5280
   63POPC   CN3 3227   1.533   3.014   0.358 -0.6549 -0.4014 -0.0006
   63POPC   NTM 3228   1.402   3.027   0.423 -0.4587 -0.1242  0.3421
   63POPC    CA 3229   1.302   3.090   0.336 -0.3108  0.0222  0.2773
   63POPC    CB 3230   1.328   3.204   0.238  0.2283 -0.2968  0.0480
   63POPC    OA 3231   1.380   3.321   0.302  0.3894 -0.2324 -0.1970
   63POPC     P 3232   1.459   3.421   0.203  0.1310 -0.1284 -0.2988
   63POPC    OB 3233   1.355   3.505   0.139 -0.1389 -0.3997 -0.2233
   63POPC    OC 3234   1.544   3.332   0.121  0.1955 -0.2666 -0.0837
   63POPC    OD 3235   1.534   3.513   0.311  0.0483  0.1297 -0.4623
   63POPC    CC 3236   1.644   3.441   0.366 -0.3167 -0.2200 -0.1840
   63POPC    CD 3237   1.705   3.493   0.496 -0.5522  0.3105 -0.2857
   63POPC    OE 3238   1.627   3.455   0.609  0.0351 -0.2527 -0.0620
   63POPC   C1A 3239   1.663   3.338   0.660 -0.3238 -0.3177  0.0483
   63POPC    OF 3240   1.687   3.243   0.586 -0.3252  0.0525 -0.4280
   63POPC   C1B 3241   1.635   3.318   0.804  0.1828 -0.4428  0.1315
   63POPC   C1C 3242   1.754   3.364   0.889  0.4362 -0.3372 -0.2770
   63POPC   C1D 3243   1.736   3.354   1.041  0.4189 -0.0629 -0.2603
   63POPC   C1E 3244   1.875   3.375   1.103  0.3721  0.2227 -0.2515
   63POPC   C1F 3245   1.850   3.450   1.234  0.1652 -0.1360 -0.0859
   63POPC   C1G 3246   1.984   3.464   1.306  0.1778  0.6313 -0.2549
   63POPC   C1H 3247   2.091   3.543   1.231  0.3096  0.1976 -0.5275
   63POPC   C1I 3248   2.209   3.579   1.322 -0.0136  1.0294 -0.4280
   63POPC   C1J 3249   2.232   3.689   1.393  0.4125  0.4337  0.3599
   63POPC   C1K 3250   2.121   3.789   1.424 -0.0477  0.1025 -0.2031
   63POPC   C1L 3251   2.130   3.857   1.561 -0.3700  0.3138 -0.2864
   63POPC   C1M 3252   2.032   3.974   1.578 -0.2640  0.4767 -0.7811
   63POPC   C1N 3253   2.025   4.030   1.720 -0.1290 -0.2949 -0.4665
   63POPC   C1O 3254   1.938   4.155   1.710 -0.3779 -0.4052  0.2309
   63POPC   C1P 3255   1.895   4.215   1.844  0.0429 -0.2940  0.3201
   63POPC   C1Q 3256   1.838   4.353   1.809 -0.0293 -0.2829  0.4823
   63POPC   C1R 3257   1.857   4.440   1.934 -0.1454  0.2666  0.1197
   63POPC    CE 3258   1.738   3.642   0.482 -0.1163  0.2250 -0.1912
   63POPC    OG 3259   1.821   3.700   0.584 -0.0761  0.5370 -0.4000
   63POPC   C2A 3260   1.763   3.715   0.702  0.1494  0.6872 -0.3082
   63POPC    OH 3261   1.641   3.727   0.712  0.0872 -0.0949 -0.0124
   63POPC   C2B 3262   1.867   3.734   0.806 -0.5543 -0.1760  0.5728
   63POPC   C2C 3263   1.823   3.797   0.938  0.2684  0.1908  0.6749
   63POPC   C2D 3264   1.946   3.810   1.029  0.3921  0.2230  0.5019
   63POPC   C2E 3265   2.046   3.911   0.972  0.2283  0.0368 -0.1234
   63POPC   C2F 3266   2.168   3.925   1.064  0.2660  0.1697 -0.1933
   63POPC   C2G 3267   2.264   4.032   1.014  0.4402 -0.0745 -0.3856
   63POPC   C2H 3268   2.393   4.025   1.096  0.3261  0.1825 -0.1817
   63POPC   C2I 3269   2.375   4.084   1.236 -0.3777 -0.2705 -0.0795
   63POPC   C2J 3270   2.506   4.083   1.314 -0.1455  0.0569 -0.4659
   63POPC   C2K 3271   2.552   3.943   1.353  0.2961  0.3576  0.1071
   63POPC   C2L 3272   2.672   3.945   1.449  0.2481 -0.0744  0.1807
   63POPC   C2M 3273   2.702   3.809   1.511 -0.3031 -0.3638 -0.1753
   63POPC   C2N 3274   2.789   3.799   1.637 -0.1809 -0.3148 -0.2560
   63POPC   C2O 3275   2.930   3.858   1.625 -0.2606 -0.0922 -0.1072
   63POPC   C2P 3276   2.985   3.900   1.762 -0.2147 -0.1541 -0.1065
   64POPC   CN1 3277   5.000   5.488   0.502 -0.3441 -0.0954 -0.8892
   64POPC   CN2 3278   5.083   5.495   0.266 -0.6466 -0.1007 -0.5975
   64POPC   CN3 3279   4.986   5.306   0.348  0.0511 -0.1834  0.1443
   64POPC   NTM 3280   5.068   5.420   0.391  0.2975 -0.1141 -0.4873
   64POPC    CA 3281   5.201   5.367   0.426  0.2301 -0.4490 -0.7370
   64POPC    CB 3282   5.229   5.272   0.543  0.3028  0.8612  0.3356
   64POPC    OA 3283   5.159   5.295   0.665 -0.2590  0.5344  0.0794
   64POPC     P 3284   5.190   5.184   0.777 -0.4802  0.1556 -0.2323
   64POPC    OB 3285   5.267   5.254   0.882 -0.3837  0.1214 -0.2799
   64POPC    OC 3286   5.237   5.064   0.704 -0.5051 -0.2838  0.4613
   64POPC    OD 3287   5.041   5.165   0.837 -0.6157 -0.4945 -0.7657
   64POPC    CC 3288   5.006   5.291   0.894  0.2446 -0.3978 -0.4279
   64POPC    CD 3289   4.862   5.295   0.946  0.5210  0.5509  0.3008
   64POPC    OE 3290   4.811   5.428   0.953  0.2018  0.4308  0.2826
   64POPC   C1A 3291   4.792   5.487   0.835  0.4204 -0.0903 -0.0171
   64POPC    OF 3292   4.776   5.433   0.726 -0.0374  0.3346 -0.1615
   64POPC   C1B 3293   4.776   5.633   0.854 -0.7402 -0.1913 -0.1435
   64POPC   C1C 3294   4.894   5.718   0.900 -0.8135  0.0120 -0.3324
   64POPC   C1D 3295   4.869   5.869   0.902  0.2238  0.1906 -0.2486
   64POPC   C1E 3296   4.974   5.963   0.961 -0.3984  0.4333  0.4812
   64POPC   C1F 3297   5.011   5.937   1.107 -0.0669 -0.3625  0.2604
   64POPC   C1G 3298   4.902   5.940   1.214 -0.1155  0.3054  0.1944
   64POPC   C1H 3299   4.821   6.071   1.214  0.0102  0.3845 -0.3438
   64POPC   C1I 3300   4.730   6.089   1.336  0.2866 -0.1813 -0.0483
   64POPC   C1J 3301   4.685   6.211   1.361  0.2567 -0.0899 -0.5313
   64POPC   C1K 3302   4.713   0.028   1.263 -0.0834  0.3228 -0.1578
   64POPC   C1L 3303   4.657   0.163   1.307 -0.6211  0.0176  0.0913
   64POPC   C1M 3304   4.692   0.264   1.198 -0.5510  0.1022  0.1918
   64POPC   C1N 3305   4.614   0.395   1.207 -0.1487  0.4071 -0.6041
   64POPC   C1O 3306   4.647   0.465   1.339  0.3643 -0.7223 -0.1206
   64POPC   C1P 3307   4.570   0.595   1.360  0.2118 -0.8636  0.1877
   64POPC   C1Q 3308   4.588   0.694   1.245  0.1722 -0.5421  0.4571
   64POPC   C1R 3309   4.518   0.827   1.277  0.4103 -0.3778  0.2995
   64POPC    CE 3310   4.864   5.227   1.083 -0.2013 -0.1856 -0.0393
   64POPC    OG 3311   4.865   5.084   1.090  0.0221 -0.1716  0.2363
   64POPC   C2A 3312   4.837   5.030   1.207 -0.0156  0.3062  0.4514
   64POPC    OH 3313   4.803   5.093   1.307 -0.1769  0.5789  0.2250
   64POPC   C2B 3314   4.865   4.886   1.187 -0.3138  0.3803 -0.5376
   64POPC   C2C 3315   4.922   4.817   1.311  0.1993  0.5987 -0.6494
   64POPC   C2D 3316   5.054   4.874   1.364  0.3667 -0.2496 -0.1294
   64POPC   C2E 3317   5.092   4.821   1.502  0.1796  0.2424  0.1130
   64POPC   C2F 3318   5.226   4.885   1.539  0.2761  0.0713  0.0593
   64POPC   C2G 3319   5.289   4.838   1.670 -0.3593  0.1772  0.4082
   64POPC   C2H 3320   5.432   4.890   1.691  0.0330 -0.7390  0.0666
   64POPC   C2I 3321   5.489   4.838   1.823 -0.0426 -0.4400  0.2176
   64POPC   C2J 3322   5.620   4.907   1.864 -0.1648 -0.2082  0.2177
   64POPC   C2K 3323   5.683   4.844   1.989 -0.0347 -0.0699  0.2218
   64POPC   C2L 3324   5.720   4.696   1.987  0.1078 -0.0303 -0.2549
   64POPC   C2M 3325   5.758   4.647   2.127  0.2513 -0.3489 -0.4043
   64POPC   C2N 3326   5.638   4.650   2.222  0.5853 -0.4148  0.0216
   64POPC   C2O 3327   5.677   4.594   2.359 -0.6096  0.0120  0.5585
   64POPC   C2P 3328   5.563   4.607   2.460 -0.8185  0.2269  0.2978
   65POPC   CN1 3329   4.843   4.454   0.388 -0.1249  0.0187 -0.1243
   65POPC   CN2 3330   4.975   4.514   0.198  0.4209  0.3486  0.0048
   65POPC   CN3 3331   4.793   4.361   0.177 -0.1285 -0.3154  1.0763
   65POPC   NTM 3332   4.904   4.404   0.264  0.4590  0.3374  0.0283
   65POPC    CA 3333   4.991   4.289   0.291 -0.6286 -0.4775  0.1293
   65POPC    CB 3334   5.071   4.206   0.191  0.1027 -0.1229  0.4159
   65POPC    OA 3335   5.170   4.282   0.121  0.3936  0.2797  1.2544
   65POPC     P 3336   5.284   4.186   0.061 -0.2891 -0.0393  0.4459
   65POPC    OB 3337   5.227   4.059   0.011 -0.0267  0.1667 -0.3869
   65POPC    OC 3338   5.404   4.199   0.147  0.0106  0.3006 -0.0198
   65POPC    OD 3339   5.312   4.254   3.906  0.2438 -0.8533  0.1563
   65POPC    CC 3340   5.421   4.178   3.853  0.5037 -0.6397  0.3771
   65POPC    CD 3341   5.424   4.185   3.700  0.2127  0.2005  0.4086
   65POPC    OE 3342   5.513   4.096   3.634 -0.0962  0.1721  0.0254
   65POPC   C1A 3343   5.464   4.027   3.531  0.0817  0.6644 -0.3933
   65POPC    OF 3344   5.349   3.984   3.543  0.4764 -0.3138 -0.0147
   65POPC   C1B 3345   5.571   3.995   3.434 -0.0285 -0.0410 -0.2852
   65POPC   C1C 3346   5.552   4.085   3.312 -0.2585 -0.2961 -0.4400
   65POPC   C1D 3347   5.673   4.064   3.221  0.2445 -0.1198  0.1805
   65POPC   C1E 3348   5.648   4.157   3.102  0.0247  0.0100  0.3270
   65POPC   C1F 3349   5.778   4.161   3.021 -0.2783  0.0246 -0.1662
   65POPC   C1G 3350   5.748   4.258   2.907  0.1073  0.2145 -0.1088
   65POPC   C1H 3351   5.864   4.292   2.813  0.0117 -0.1921 -0.3775
   65POPC   C1I 3352   5.858   4.231   2.673 -0.3510 -0.2432 -0.3394
   65POPC   C1J 3353   5.931   4.279   2.573  0.1877  0.4430  0.3813
   65POPC   C1K 3354   6.023   4.401   2.593  0.2308  0.4848 -0.0628
   65POPC   C1L 3355   6.070   4.453   2.457 -0.2242 -0.0808 -0.4444
   65POPC   C1M 3356   6.187   4.364   2.415  0.0042  0.0499 -0.0901
   65POPC   C1N 3357   6.266   4.411   2.292  0.1585 -0.8201 -0.3334
   65POPC   C1O 3358   6.185   4.412   2.163 -0.3235  0.3310 -0.0435
   65POPC   C1P 3359   6.161   4.267   2.119 -0.6059  0.3679 -0.0166
   65POPC   C1Q 3360   6.082   4.258   1.988  0.1294 -0.1371 -0.4400
   65POPC   C1R 3361   5.954   4.342   1.982  0.5328  0.4710 -0.5634
   65POPC    CE 3362   5.455   4.332   3.672 -0.0069  0.1651 -0.0265
   65POPC    OG 3363   5.408   4.389   3.549 -0.1996 -0.0305 -0.0425
   65POPC   C2A 3364   5.436   4.518   3.534  0.1154 -0.1384 -0.3730
   65POPC    OH 3365   5.454   4.584   3.636 -0.0613 -0.2426 -0.2740
   65POPC   C2B 3366   5.421   4.579   3.400  0.1099  0.1688 -0.2331
   65POPC   C2C 3367   5.474   4.491   3.286  0.2683 -0.2631  0.1716
   65POPC   C2D 3368   5.445   4.552   3.149 -0.3031 -0.4807  0.1908
   65POPC   C2E 3369   5.501   4.480   3.025 -0.0807  0.1737 -0.0927
   65POPC   C2F 3370   5.468   4.559   2.898  0.3286 -0.5784 -0.6725
   65POPC   C2G 3371   5.318   4.556   2.868  0.1851 -0.0587 -0.0188
   65POPC   C2H 3372   5.287   4.655   2.755 -0.6826 -0.2847  0.0091
   65POPC   C2I 3373   5.147   4.621   2.704 -0.1439 -1.1223 -0.9496
   65POPC   C2J 3374   5.119   4.675   2.564 -0.3073  0.2487 -0.4022
   65POPC   C2K 3375   5.206   4.621   2.450 -0.0977  0.0337 -0.1406
   65POPC   C2L 3376   5.193   4.716   2.331 -0.6812 -0.2404 -0.2994
   65POPC   C2M 3377   5.257   4.855   2.328 -0.6520 -0.2546 -0.3153
   65POPC   C2N 3378   5.220   4.933   2.201 -0.0078 -0.0414 -0.3763
   65POPC   C2O 3379   5.310   5.051   2.164 -0.1452  0.1025 -0.2544
   65POPC   C2P 3380   5.298   5.088   2.016  0.3272  0.3343 -0.2372
   66POPC   CN1 3381   0.445   4.662   0.098  0.2432  0.1368 -0.8036
   66POPC   CN2 3382   0.390   4.881   0.154  0.2766 -0.1029  0.3858
   66POPC   CN3 3383   0.500   4.841   3.937  0.4452  0.3412 -0.1264
   66POPC   NTM 3384   0.495   4.800   0.090  0.1738  0.2036 -0.1764
   66POPC    CA 3385   0.611   4.831   0.174  0.2064 -1.0163  0.2434
   66POPC    CB 3386   0.754   4.793   0.135  0.3852 -0.2147  0.0862
   66POPC    OA 3387   0.763   4.654   0.101  0.3516 -0.1669 -0.1159
   66POPC     P 3388   0.917   4.616   0.072  0.3301 -0.0924 -0.3278
   66POPC    OB 3389   0.921   4.472   0.108  0.1558 -0.1166 -0.4019
   66POPC    OC 3390   1.018   4.701   0.137  0.2457  0.1108 -0.4615
   66POPC    OD 3391   0.916   4.651   3.903 -0.0476  0.1506 -0.2733
   66POPC    CC 3392   0.846   4.542   3.841 -0.2973 -0.3610  0.8751
   66POPC    CD 3393   0.743   4.584   3.736  0.4203 -0.2251  0.2177
   66POPC    OE 3394   0.652   4.476   3.715 -0.0121  0.0786  0.5233
   66POPC   C1A 3395   0.526   4.502   3.679  0.0977 -0.1381 -0.0195
   66POPC    OF 3396   0.479   4.611   3.709 -0.2132 -0.3167  0.1491
   66POPC   C1B 3397   0.442   4.386   3.642 -0.0483  0.0545 -0.2922
   66POPC   C1C 3398   0.464   4.367   3.492  0.3548 -0.6104 -0.1516
   66POPC   C1D 3399   0.376   4.453   3.401  0.4177 -0.8966 -0.4848
   66POPC   C1E 3400   0.411   4.434   3.253  0.3248  0.2586 -0.6652
   66POPC   C1F 3401   0.335   4.534   3.166 -0.0886  0.0352 -0.5640
   66POPC   C1G 3402   0.366   4.492   3.022  0.1580 -0.1641 -0.4532
   66POPC   C1H 3403   0.283   4.577   2.926 -0.1528 -0.2868 -0.2920
   66POPC   C1I 3404   0.308   4.524   2.784  0.4218 -0.6792 -0.0432
   66POPC   C1J 3405   0.248   4.585   2.683  0.1801  0.0080  0.5011
   66POPC   C1K 3406   0.137   4.690   2.689  0.1102 -0.0320 -0.0202
   66POPC   C1L 3407   0.097   4.745   2.552 -0.1126  0.1613  0.1223
   66POPC   C1M 3408   6.263   4.858   2.574 -0.2813  0.0376 -0.0081
   66POPC   C1N 3409   6.245   4.943   2.448  0.0129 -0.1163 -0.1559
   66POPC   C1O 3410   6.150   4.882   2.344 -0.1217  0.3078 -0.2817
   66POPC   C1P 3411   6.107   4.979   2.234  0.0331  0.3580 -0.2983
   66POPC   C1Q 3412   6.018   4.926   2.121  0.0634 -0.0064 -0.1527
   66POPC   C1R 3413   6.019   5.010   1.993 -0.7582 -0.1491 -0.2555
   66POPC    CE 3414   0.821   4.626   3.611  0.0880  0.2149  0.1569
   66POPC    OG 3415   0.896   4.523   3.547 -0.2835  0.0114  0.0422
   66POPC   C2A 3416   1.011   4.563   3.494 -0.3119 -0.1512 -0.1435
   66POPC    OH 3417   1.044   4.680   3.512 -0.1102 -0.1861 -0.2770
   66POPC   C2B 3418   1.088   4.451   3.435 -0.1409 -0.4044  0.5486
   66POPC   C2C 3419   1.182   4.521   3.337 -0.9648  0.1250  0.1207
   66POPC   C2D 3420   1.292   4.426   3.288 -0.9701  0.3345 -0.3030
   66POPC   C2E 3421   1.250   4.296   3.220 -0.3292 -0.0956  0.1054
   66POPC   C2F 3422   1.184   4.315   3.083 -0.3425 -0.1165  0.1090
   66POPC   C2G 3423   1.268   4.387   2.977 -0.1043 -0.3941  0.1077
   66POPC   C2H 3424   1.183   4.420   2.854  0.4765 -0.9718 -0.4592
   66POPC   C2I 3425   1.263   4.532   2.786 -0.1379  0.0209  0.4073
   66POPC   C2J 3426   1.180   4.600   2.678  0.4518  0.3385  0.1504
   66POPC   C2K 3427   1.166   4.511   2.555  0.5055  0.1651  0.2712
   66POPC   C2L 3428   1.108   4.596   2.442  0.4421 -0.1795  0.0405
   66POPC   C2M 3429   1.085   4.546   2.300  0.4120  0.1186 -0.0613
   66POPC   C2N 3430   0.999   4.643   2.219 -0.1843  0.1135  0.5565
   66POPC   C2O 3431   1.032   4.792   2.222  0.0785  0.0717 -0.1177
   66POPC   C2P 3432   0.973   4.861   2.098 -0.3737  0.2972  0.2220
   67POPC   CN1 3433   3.743   5.918   3.902  0.3004 -0.0340 -0.2465
   67POPC   CN2 3434   3.694   6.110   3.761  0.7909  0.7375  0.3376
   67POPC   CN3 3435   3.882   6.121   3.893  0.0948 -0.2421 -0.1270
   67POPC   NTM 3436   3.747   6.064   3.890 -0.0357  0.0359  0.4341
   67POPC    CA 3437   3.656   6.134   3.982 -0.5352  0.3923 -0.3211
   67POPC    CB 3438   3.519   6.084   0.040 -0.3325 -0.5038 -0.6794
   67POPC    OA 3439   3.420   6.060   3.928 -0.4387 -0.1716 -0.6549
   67POPC     P 3440   3.310   5.952   3.974 -0.2155 -0.0675  0.1412
   67POPC    OB 3441   3.186   5.941   3.894 -0.1127  0.0135 -0.0299
   67POPC    OC 3442   3.320   5.932   0.131  0.3257  0.1159  0.1312
   67POPC    OD 3443   3.410   5.842   3.911 -0.2290  0.1264 -0.2233
   67POPC    CC 3444   3.398   5.828   3.769  0.2771  0.2297 -0.2791
   67POPC    CD 3445   3.466   5.706   3.706 -0.3264 -0.0994 -0.3115
   67POPC    OE 3446   3.470   5.712   3.563 -0.0151 -0.0776 -0.3022
   67POPC   C1A 3447   3.554   5.801   3.510  0.3819 -0.3860 -0.1988
   67POPC    OF 3448   3.644   5.853   3.576 -0.2213  0.5566 -0.0921
   67POPC   C1B 3449   3.524   5.835   3.369 -0.1219  0.1674  0.0374
   67POPC   C1C 3450   3.412   5.936   3.345 -0.1999  0.1016  0.1299
   67POPC   C1D 3451   3.422   6.061   3.434  1.1181  0.2970 -0.2799
   67POPC   C1E 3452   3.307   6.156   3.400  0.8384 -0.0885 -0.4227
   67POPC   C1F 3453   3.301   6.274   3.497 -0.0039 -0.2160 -0.3197
   67POPC   C1G 3454   3.243   6.237   3.634  0.1679 -0.1789 -0.2364
   67POPC   C1H 3455   3.242   0.053   3.737 -0.0147 -0.2466 -0.1633
   67POPC   C1I 3456   3.207   6.296   3.876  0.5478 -0.6768 -0.1839
   67POPC   C1J 3457   3.262   0.051   3.986 -0.4178  0.6979 -0.3162
   67POPC   C1K 3458   3.370   0.158   3.971  0.1333  0.2459  0.3550
   67POPC   C1L 3459   3.394   0.233   0.113  0.0447 -0.0577  0.5474
   67POPC   C1M 3460   3.481   0.358   0.096  0.3498 -0.3385  0.0508
   67POPC   C1N 3461   3.541   0.404   0.229 -0.1914 -0.0290  0.1883
   67POPC   C1O 3462   3.613   0.532   0.187  0.4144 -0.1728  0.7743
   67POPC   C1P 3463   3.755   0.516   0.131  0.0359 -0.4548 -0.1213
   67POPC   C1Q 3464   3.853   0.453   0.229  0.3655 -0.0123 -0.1633
   67POPC   C1R 3465   3.884   0.558   0.336  0.4244 -0.4898  0.2965
   67POPC    CE 3466   3.375   5.592   3.750  0.1590 -0.3702  0.0059
   67POPC    OG 3467   3.237   5.603   3.711  0.1499  0.1608  0.1740
   67POPC   C2A 3468   3.204   5.528   3.606  0.6811  0.5512 -0.2763
   67POPC    OH 3469   3.267   5.427   3.577 -0.1069  0.0743 -0.3434
   67POPC   C2B 3470   3.100   5.593   3.524  0.0993  0.0099  0.0302
   67POPC   C2C 3471   3.151   5.638   3.388  0.0886  0.8036  0.2873
   67POPC   C2D 3472   3.050   5.738   3.330 -0.4499 -0.1010 -0.3570
   67POPC   C2E 3473   3.090   5.779   3.188  0.4567  0.1674 -0.0308
   67POPC   C2F 3474   2.994   5.891   3.150 -0.4548 -0.2537  0.9862
   67POPC   C2G 3475   3.040   5.955   3.018  0.1629 -0.5101  1.0770
   67POPC   C2H 3476   2.950   6.070   2.972  0.6843 -0.6039 -0.2026
   67POPC   C2I 3477   3.017   6.123   2.845 -0.3071  0.2397 -0.3783
   67POPC   C2J 3478   2.960   6.251   2.784 -0.3115  0.1590 -0.5433
   67POPC   C2K 3479   3.067   0.028   2.703  0.2621  0.0680  0.1253
   67POPC   C2L 3480   3.143   6.243   2.599 -0.1841 -0.1666 -0.0203
   67POPC   C2M 3481   3.254   0.020   2.525 -0.5050  0.1354 -0.1999
   67POPC   C2N 3482   3.311   6.235   2.409  0.0195  0.0254  0.1314
   67POPC   C2O 3483   3.424   0.014   2.339 -0.2659  0.6471  0.3415
   67POPC   C2P 3484   3.395   0.150   2.274 -0.0844  0.4819 -0.0876
   68POPC   CN1 3485   1.822   6.177   3.520 -0.1259 -0.0954  0.3054
   68POPC   CN2 3486   1.824   0.103   3.581 -0.0812  0.6632 -0.1355
   68POPC   CN3 3487   1.975   6.255   3.681  0.1411  0.5764  0.0540
   68POPC   NTM 3488   1.835   6.265   3.637  0.2470  0.6312 -0.2737
   68POPC    CA 3489   1.752   6.258   3.759  0.5571 -0.2985 -0.1068
   68POPC    CB 3490   1.607   6.216   3.737  0.3483  0.1555  0.3734
   68POPC    OA 3491   1.590   6.083   3.686 -0.1414  0.3289  0.0821
   68POPC     P 3492   1.441   6.034   3.722 -0.1670  0.2068 -0.1847
   68POPC    OB 3493   1.411   6.085   3.858  0.6818  0.8846 -0.2441
   68POPC    OC 3494   1.445   5.891   3.686  0.2347  0.1158  0.2176
   68POPC    OD 3495   1.357   6.100   3.601  0.1526  0.6301 -0.1787
   68POPC    CC 3496   1.351   6.031   3.476 -0.2133  0.0866  0.1320
   68POPC    CD 3497   1.345   6.123   3.354  0.4806  0.1510  0.1407
   68POPC    OE 3498   1.335   6.061   3.226 -0.1749  0.0191  0.2500
   68POPC   C1A 3499   1.211   6.066   3.178 -0.1129  0.8449  0.1545
   68POPC    OF 3500   1.117   6.053   3.256 -0.0108 -0.0770  0.1362
   68POPC   C1B 3501   1.195   6.051   3.031  0.3724 -0.4696  0.2144
   68POPC   C1C 3502   1.198   6.187   2.961 -0.8211 -0.4392  0.1898
   68POPC   C1D 3503   1.199   6.187   2.808 -0.2772 -0.4574  0.1904
   68POPC   C1E 3504   1.334   6.150   2.746 -0.2124 -0.0723  0.1026
   68POPC   C1F 3505   1.350   6.148   2.593 -0.1058  0.3871  0.1050
   68POPC   C1G 3506   1.263   6.032   2.543  0.4002 -0.0312  0.1843
   68POPC   C1H 3507   1.267   6.047   2.390  0.2113 -0.1588  0.1672
   68POPC   C1I 3508   1.220   5.915   2.328  0.0802 -0.1208  0.1853
   68POPC   C1J 3509   1.183   5.909   2.200  0.4523 -0.2863  0.0836
   68POPC   C1K 3510   1.185   6.033   2.110  0.8049  0.0386  0.5318
   68POPC   C1L 3511   1.267   5.992   1.987  0.0444  0.2941 -0.0693
   68POPC   C1M 3512   1.293   6.096   1.878 -0.3674  0.1503 -0.3076
   68POPC   C1N 3513   1.343   6.016   1.757  0.5383  0.4614 -0.1472
   68POPC   C1O 3514   1.291   6.092   1.635 -0.3989  0.0956  0.0147
   68POPC   C1P 3515   1.345   6.236   1.634 -0.1232 -0.0078  0.0111
   68POPC   C1Q 3516   1.257   0.026   1.545  0.4725 -0.1299 -0.7100
   68POPC   C1R 3517   1.328   0.155   1.504  0.4475  0.0120 -0.3155
   68POPC    CE 3518   1.460   6.223   3.365  0.4154  0.2215  0.1826
   68POPC    OG 3519   1.463   0.020   3.257  0.0196 -0.1241 -0.1317
   68POPC   C2A 3520   1.554   0.117   3.269 -0.0753 -0.0653  0.1208
   68POPC    OH 3521   1.666   0.094   3.313  0.1986  0.3476 -0.3648
   68POPC   C2B 3522   1.524   0.238   3.189 -0.0376 -0.1727 -0.0567
   68POPC   C2C 3523   1.603   0.252   3.059  0.0249  0.2065  0.0231
   68POPC   C2D 3524   1.566   0.165   2.939  0.5745 -0.4180  0.3033
   68POPC   C2E 3525   1.633   0.226   2.816 -0.0091  0.3992  0.3846
   68POPC   C2F 3526   1.556   0.171   2.696 -0.3501  0.9119  0.3660
   68POPC   C2G 3527   1.625   0.229   2.573  0.3054 -0.0733  0.2596
   68POPC   C2H 3528   1.556   0.201   2.438  0.0081  0.1393  0.3661
   68POPC   C2I 3529   1.433   0.286   2.407  0.3855  0.4114 -0.3974
   68POPC   C2J 3530   1.370   0.243   2.274 -0.1017  0.1676 -0.0910
   68POPC   C2K 3531   1.467   0.279   2.161  0.0468 -0.3142 -0.1166
   68POPC   C2L 3532   1.410   0.216   2.034 -0.5533  0.9175 -0.4725
   68POPC   C2M 3533   1.483   0.254   1.905 -0.0087 -0.0993 -0.4726
   68POPC   C2N 3534   1.469   0.396   1.850  0.2274 -0.0962 -0.5257
   68POPC   C2O 3535   1.572   0.440   1.746  0.5823  0.1996 -0.0523
   68POPC   C2P 3536   1.566   0.586   1.698  0.2819 -0.0028 -0.6471
   69POPC   CN1 3537   1.457   4.811   3.759 -0.0253  0.2633  0.0317
   69POPC   CN2 3538   1.243   4.816   3.675  0.0876 -0.1530  0.5175
   69POPC   CN3 3539   1.287   4.942   3.869  0.1564  0.1725 -0.0039
   69POPC   NTM 3540   1.316   4.814   3.802  0.1096 -0.1063  0.5054
   69POPC    CA 3541   1.273   4.702   3.887  0.0982 -0.5889 -0.1271
   69POPC    CB 3542   1.374   4.655   0.004  0.1921 -0.3401 -0.1055
   69POPC    OA 3543   1.433   4.762   0.080 -0.1182 -0.1580 -0.1183
   69POPC     P 3544   1.573   4.719   0.145 -0.1012  0.3877  0.2022
   69POPC    OB 3545   1.578   4.572   0.131  0.5824  0.4854 -0.6495
   69POPC    OC 3546   1.536   4.782   0.274  0.2828  0.6611  0.1830
   69POPC    OD 3547   1.686   4.794   0.058  0.3300  0.1203  0.5262
   69POPC    CC 3548   1.782   4.701   0.007  0.2746 -0.2052  1.0083
   69POPC    CD 3549   1.841   4.757   3.866  0.1285 -0.4705  0.8254
   69POPC    OE 3550   1.870   4.661   3.764 -0.4163 -0.1378  0.3455
   69POPC   C1A 3551   1.773   4.584   3.716 -0.0035 -0.3862 -0.0941
   69POPC    OF 3552   1.664   4.566   3.769 -0.1469  0.5160 -0.0694
   69POPC   C1B 3553   1.813   4.497   3.603  0.4899 -0.0960 -0.1489
   69POPC   C1C 3554   1.696   4.438   3.524 -0.0181  0.1852  0.3795
   69POPC   C1D 3555   1.728   4.368   3.391  0.3262  0.1686  0.4714
   69POPC   C1E 3556   1.780   4.462   3.283 -0.4414  0.0024 -0.0487
   69POPC   C1F 3557   1.792   4.400   3.144  0.2042 -0.6222  0.2770
   69POPC   C1G 3558   1.652   4.366   3.089 -0.0447  0.7257  0.0385
   69POPC   C1H 3559   1.656   4.294   2.955 -0.2719  0.2029  0.3098
   69POPC   C1I 3560   1.712   4.152   2.969 -0.7052 -0.0334 -0.2947
   69POPC   C1J 3561   1.789   4.104   2.871  0.1116  0.2210  0.2088
   69POPC   C1K 3562   1.802   4.183   2.741  0.1641  0.3041  0.2645
   69POPC   C1L 3563   1.929   4.148   2.662 -0.1667 -0.6631  0.1485
   69POPC   C1M 3564   1.915   4.188   2.515 -0.2336 -0.2505  0.2677
   69POPC   C1N 3565   2.036   4.145   2.433 -0.3725 -0.3190  0.0980
   69POPC   C1O 3566   2.052   4.220   2.301 -0.2659 -0.3464  0.0952
   69POPC   C1P 3567   2.180   4.182   2.225 -0.2385 -0.0087 -0.0308
   69POPC   C1Q 3568   2.297   4.255   2.289 -0.3038  0.2307 -0.1846
   69POPC   C1R 3569   2.428   4.189   2.247 -0.2813 -0.2174  0.5721
   69POPC    CE 3570   1.955   4.847   3.913 -0.0885  0.3901 -0.2556
   69POPC    OG 3571   2.020   4.918   3.807  0.0945  0.6396  0.0216
   69POPC   C2A 3572   2.133   4.866   3.759 -0.1615  0.2260 -0.1320
   69POPC    OH 3573   2.204   4.786   3.820  0.0398  0.6374  0.1729
   69POPC   C2B 3574   2.169   4.927   3.629 -0.4740 -0.1063 -0.3769
   69POPC   C2C 3575   2.125   4.856   3.501 -0.2710 -0.1037 -0.4489
   69POPC   C2D 3576   2.187   4.906   3.371  0.0786  0.3793 -0.0994
   69POPC   C2E 3577   2.108   4.853   3.251  0.2802  0.1471 -0.1312
   69POPC   C2F 3578   2.161   4.907   3.118 -0.3367  0.3768 -0.2879
   69POPC   C2G 3579   2.110   5.049   3.093 -0.1352  0.5035  0.0183
   69POPC   C2H 3580   2.136   5.095   2.949 -0.0033  0.2487 -0.0385
   69POPC   C2I 3581   2.283   5.126   2.921  0.0195 -0.0497 -0.2574
   69POPC   C2J 3582   2.310   5.165   2.775  0.2700 -0.2048 -0.2520
   69POPC   C2K 3583   2.448   5.105   2.745  0.4989 -0.0212  0.4145
   69POPC   C2L 3584   2.468   5.060   2.600 -0.3933  0.6022  0.0919
   69POPC   C2M 3585   2.368   4.959   2.543  0.1981 -0.0785  0.2552
   69POPC   C2N 3586   2.416   4.935   2.400  0.4933 -0.1553  0.3670
   69POPC   C2O 3587   2.352   4.818   2.326  0.3407 -0.0393  0.3174
   69POPC   C2P 3588   2.366   4.676   2.380 -0.5188 -0.1866  0.1691
   70POPC   CN1 3589   1.943   5.432   0.014 -0.0146 -0.1390  0.7441
   70POPC   CN2 3590   2.148   5.487   3.899 -0.7625 -0.0561 -0.2490
   70POPC   CN3 3591   2.001   5.332   3.802  0.3253 -0.2719  0.0695
   70POPC   NTM 3592   2.058   5.374   3.930 -0.3138 -0.2527  0.3508
   70POPC    CA 3593   2.140   5.282   0.022  0.2123 -0.0328  0.0746
   70POPC    CB 3594   2.231   5.170   3.960 -0.7896 -0.5596 -0.6192
   70POPC    OA 3595   2.319   5.220   3.860  0.1915 -0.2487  0.3734
   70POPC     P 3596   2.460   5.143   3.867  0.4578  0.1915 -0.0373
   70POPC    OB 3597   2.461   5.044   3.756 -0.2218  0.0106  0.1136
   70POPC    OC 3598   2.497   5.100   0.015 -0.0553 -1.0432 -0.2658
   70POPC    OD 3599   2.554   5.266   3.825  0.2954  0.3875  0.1713
   70POPC    CC 3600   2.555   5.294   3.685 -0.5923  0.1367  0.1102
   70POPC    CD 3601   2.638   5.418   3.648 -0.1470 -0.0831  0.3737
   70POPC    OE 3602   2.612   5.478   3.522  0.5540 -0.1519  0.1943
   70POPC   C1A 3603   2.650   5.603   3.494 -0.3695  0.1681  0.3490
   70POPC    OF 3604   2.721   5.664   3.574  0.2556 -0.1850  0.0681
   70POPC   C1B 3605   2.614   5.644   3.357  0.2606  0.1934  0.1887
   70POPC   C1C 3606   2.557   5.786   3.354 -0.3952 -0.0704 -0.0162
   70POPC   C1D 3607   2.568   5.862   3.221  0.1851 -0.0275  0.0534
   70POPC   C1E 3608   2.522   6.006   3.241  0.5233  0.0911 -0.0237
   70POPC   C1F 3609   2.504   6.078   3.106 -0.3063  0.0061  0.0395
   70POPC   C1G 3610   2.378   6.038   3.029 -0.4795  0.2895  0.1741
   70POPC   C1H 3611   2.369   6.094   2.887 -0.2961 -0.0296  0.0371
   70POPC   C1I 3612   2.399   6.243   2.875  0.4232 -0.1511  0.2589
   70POPC   C1J 3613   2.446   6.289   2.760 -0.3618 -0.4970 -0.2081
   70POPC   C1K 3614   2.476   6.187   2.649  0.3805 -0.9559  0.4012
   70POPC   C1L 3615   2.613   6.214   2.587 -0.1000  0.2632 -0.1618
   70POPC   C1M 3616   2.645   6.100   2.490  0.1990 -0.3377  0.6352
   70POPC   C1N 3617   2.768   6.144   2.410 -0.6388  0.0028 -0.4900
   70POPC   C1O 3618   2.810   6.050   2.297 -0.0148 -0.0699 -0.2063
   70POPC   C1P 3619   2.867   5.923   2.360 -0.1184 -0.0849 -0.1427
   70POPC   C1Q 3620   2.881   5.815   2.252 -0.2314 -0.2538  0.0106
   70POPC   C1R 3621   2.877   5.674   2.311  0.1552 -0.0681  0.4916
   70POPC    CE 3622   2.781   5.378   3.685 -0.0821 -0.1255  0.0743
   70POPC    OG 3623   2.834   5.276   3.599 -0.1487 -0.2119  0.1365
   70POPC   C2A 3624   2.964   5.250   3.610 -0.1640 -0.1953  0.3618
   70POPC    OH 3625   3.037   5.299   3.695  0.1311 -0.3717  0.2110
   70POPC   C2B 3626   3.013   5.156   3.507  0.7400  0.8542 -0.1871
   70POPC   C2C 3627   2.978   5.209   3.368 -0.6549 -0.3437 -0.3274
   70POPC   C2D 3628   3.047   5.135   3.254  0.0145 -0.0310 -0.1330
   70POPC   C2E 3629   2.993   4.996   3.220 -0.3833  0.2228 -0.5477
   70POPC   C2F 3630   3.085   4.931   3.117  0.5879  0.1630  0.3427
   70POPC   C2G 3631   3.032   4.788   3.108 -0.0299  0.4123 -0.0243
   70POPC   C2H 3632   3.106   4.685   3.023  0.1432  0.4320  0.1032
   70POPC   C2I 3633   3.237   4.645   3.092 -0.1990 -0.2199  0.3830
   70POPC   C2J 3634   3.331   4.574   2.994  0.1502  0.7101  0.0354
   70POPC   C2K 3635   3.437   4.495   3.072 -0.3291 -0.0502 -0.0800
   70POPC   C2L 3636   3.537   4.435   2.973  0.1717  0.4809  0.1033
   70POPC   C2M 3637   3.459   4.333   2.890  0.4456 -0.1814  0.6447
   70POPC   C2N 3638   3.541   4.290   2.768 -0.2191 -0.3702  0.2619
   70POPC   C2O 3639   3.455   4.208   2.672 -0.8286  0.2193  0.2979
   70POPC   C2P 3640   3.339   4.296   2.624 -0.7799 -0.3263 -0.8567
   71POPC   CN1 3641   1.898   1.216   3.262 -0.0758  0.0611 -0.0817
   71POPC   CN2 3642   1.864   0.984   3.181  0.7164  0.3518 -0.3388
   71POPC   CN3 3643   1.707   1.167   3.159  0.2323 -0.0249 -0.1300
   71POPC   NTM 3644   1.805   1.102   3.247  0.1149 -0.0992 -0.0522
   71POPC    CA 3645   1.734   1.065   3.369  0.2167 -0.6417 -0.1538
   71POPC    CB 3646   1.812   1.037   3.498 -0.1934 -0.0059  0.2409
   71POPC    OA 3647   1.925   0.954   3.470 -0.4104 -0.3359  0.3485
   71POPC     P 3648   2.020   0.941   3.600  0.4335  0.0118 -0.2308
   71POPC    OB 3649   1.997   0.802   3.643  0.8221  0.1824  0.5429
   71POPC    OC 3650   1.983   1.047   3.697  0.5232 -0.2612  0.1007
   71POPC    OD 3651   2.166   0.964   3.536  0.4157  0.1459 -0.2232
   71POPC    CC 3652   2.211   0.859   3.451  0.3406  0.0468 -0.1400
   71POPC    CD 3653   2.233   0.894   3.304 -0.3767 -0.0757 -0.2839
   71POPC    OE 3654   2.283   0.779   3.235  0.4822  0.2855 -0.2772
   71POPC   C1A 3655   2.208   0.744   3.130 -0.1734 -0.0537  0.2966
   71POPC    OF 3656   2.099   0.797   3.110  0.0279  0.1381 -0.3003
   71POPC   C1B 3657   2.266   0.619   3.075 -0.0187  0.0137  0.3065
   71POPC   C1C 3658   2.161   0.534   3.005  0.0374  0.0163  0.2186
   71POPC   C1D 3659   2.220   0.430   2.909 -0.2450  0.5592 -0.5529
   71POPC   C1E 3660   2.102   0.365   2.837  0.0437  0.1381 -0.6435
   71POPC   C1F 3661   2.147   0.291   2.711  0.7592 -0.4893 -0.0312
   71POPC   C1G 3662   2.026   0.220   2.650  0.1705  0.1700  0.3593
   71POPC   C1H 3663   2.078   0.141   2.529 -0.4006 -0.0508  0.2541
   71POPC   C1I 3664   2.145   0.006   2.552 -0.2775 -0.1235 -0.5173
   71POPC   C1J 3665   2.138   6.213   2.454 -0.3305 -0.7446  0.0543
   71POPC   C1K 3666   2.065   6.260   2.328  0.6951  0.5546 -0.0769
   71POPC   C1L 3667   2.175   6.245   2.223  0.3095 -0.1527 -0.3863
   71POPC   C1M 3668   2.302   0.031   2.206  0.3874 -0.2086 -0.0900
   71POPC   C1N 3669   2.376   6.274   2.083  0.2729  0.0403 -0.2693
   71POPC   C1O 3670   2.515   0.040   2.092  0.2965 -0.0213 -0.1991
   71POPC   C1P 3671   2.606   6.254   2.002 -0.1816 -0.3627 -0.3695
   71POPC   C1Q 3672   2.745   0.020   2.004 -0.2351 -0.2567  0.1357
   71POPC   C1R 3673   2.853   6.233   1.936 -0.4497 -0.2206 -0.2557
   71POPC    CE 3674   2.337   1.007   3.302 -0.1259 -0.3087 -0.9179
   71POPC    OG 3675   2.331   1.098   3.193  0.0030  0.1026 -0.5834
   71POPC   C2A 3676   2.256   1.207   3.203 -0.1339 -0.0287 -0.2071
   71POPC    OH 3677   2.189   1.235   3.303 -0.0741  0.2209 -0.2373
   71POPC   C2B 3678   2.281   1.286   3.081 -0.2912 -0.0532 -0.2555
   71POPC   C2C 3679   2.163   1.277   2.984 -0.3928 -0.0811 -0.1297
   71POPC   C2D 3680   2.161   1.150   2.898  0.1026 -0.3148  0.1974
   71POPC   C2E 3681   2.016   1.131   2.853  0.0166  0.0752  0.3048
   71POPC   C2F 3682   1.966   1.228   2.746  0.2347  0.1197  0.2428
   71POPC   C2G 3683   1.813   1.227   2.738  0.2448 -0.3583  0.1292
   71POPC   C2H 3684   1.739   1.279   2.614 -0.3588 -0.4635  0.4398
   71POPC   C2I 3685   1.593   1.309   2.645 -0.3349 -0.3929  0.4818
   71POPC   C2J 3686   1.509   1.342   2.521  0.0256 -0.1730  0.2944
   71POPC   C2K 3687   1.476   1.209   2.453  0.1128 -0.0359 -0.0188
   71POPC   C2L 3688   1.390   1.232   2.329 -0.6848  0.2124  0.5714
   71POPC   C2M 3689   1.394   1.115   2.230  0.7478  0.7308 -0.0129
   71POPC   C2N 3690   1.325   1.155   2.100  0.0403 -0.1424  0.0844
   71POPC   C2O 3691   1.285   1.040   2.008 -0.0080 -0.0200 -0.0478
   71POPC   C2P 3692   1.251   1.084   1.865 -0.6516 -0.7668 -0.1293
   72POPC   CN1 3693   1.306   2.938   3.442 -0.2986  0.6460 -0.6619
   72POPC   CN2 3694   1.116   3.025   3.540  0.1007  0.1286 -0.4768
   72POPC   CN3 3695   1.320   3.156   3.528  0.0315  0.1595  0.0893
   72POPC   NTM 3696   1.262   3.023   3.553  0.0668  0.1090 -0.0973
   72POPC    CA 3697   1.306   2.953   3.675 -0.4035 -0.1199 -0.0588
   72POPC    CB 3698   1.311   3.026   3.809 -0.4769  0.0167 -0.1304
   72POPC    OA 3699   1.180   3.025   3.867 -0.3203 -0.1322  0.2201
   72POPC     P 3700   1.177   2.923   0.003  0.1145 -0.1762  0.1966
   72POPC    OB 3701   1.096   2.987   0.109  0.1266  0.0259  0.0836
   72POPC    OC 3702   1.312   2.868   0.028  0.0901 -0.1918  0.2956
   72POPC    OD 3703   1.095   2.817   3.902 -0.3415 -0.3869  0.8563
   72POPC    CC 3704   0.956   2.850   3.908 -0.3250 -0.1808  0.1703
   72POPC    CD 3705   0.892   2.810   3.774 -0.3825 -0.2444  0.2164
   72POPC    OE 3706   0.759   2.854   3.746 -0.3351  0.0168  0.3942
   72POPC   C1A 3707   0.744   2.953   3.659  0.2197  0.0472  0.3286
   72POPC    OF 3708   0.830   3.029   3.615 -0.3818  0.6419  0.1599
   72POPC   C1B 3709   0.600   2.948   3.625  0.1567  0.1678  0.5743
   72POPC   C1C 3710   0.575   2.987   3.480  0.4487  0.3718  0.5781
   72POPC   C1D 3711   0.646   2.891   3.385 -0.4368  0.2904 -0.0098
   72POPC   C1E 3712   0.610   2.930   3.241  0.2571  0.1845 -0.2160
   72POPC   C1F 3713   0.674   2.836   3.139 -0.5177 -0.2536 -0.3057
   72POPC   C1G 3714   0.673   2.922   3.013  0.0899  0.3764  0.1082
   72POPC   C1H 3715   0.765   2.866   2.905 -0.3274 -0.0309 -0.0409
   72POPC   C1I 3716   0.735   2.718   2.881  0.1211 -0.1676  0.2441
   72POPC   C1J 3717   0.838   2.648   2.833  0.0696  0.1578 -0.3343
   72POPC   C1K 3718   0.975   2.709   2.801  0.2503  0.1454  0.4204
   72POPC   C1L 3719   1.007   2.725   2.653 -0.2835  0.1146  0.3008
   72POPC   C1M 3720   0.939   2.856   2.611 -0.3553 -0.0331 -0.0484
   72POPC   C1N 3721   1.019   2.906   2.490 -0.4167 -0.2443 -0.1773
   72POPC   C1O 3722   0.959   3.038   2.443 -0.3755 -0.1358  0.0727
   72POPC   C1P 3723   1.061   3.137   2.388 -0.5099 -0.1485 -0.1987
   72POPC   C1Q 3724   1.129   3.107   2.254  0.0823 -0.0212  0.0697
   72POPC   C1R 3725   1.047   3.120   2.126 -0.3549  0.5126  0.4012
   72POPC    CE 3726   0.925   2.662   3.750  0.3028 -0.0605  0.0136
   72POPC    OG 3727   0.932   2.628   3.611  0.2179 -0.2269  0.0510
   72POPC   C2A 3728   1.042   2.662   3.545  0.0419  0.0120 -0.1217
   72POPC    OH 3729   1.145   2.691   3.605  0.1969 -0.2394 -0.2646
   72POPC   C2B 3730   1.017   2.662   3.399 -0.2157  0.1649 -0.0794
   72POPC   C2C 3731   1.113   2.559   3.337  0.1713  0.2150  0.4236
   72POPC   C2D 3732   1.091   2.549   3.186  0.0137 -0.0083  0.4604
   72POPC   C2E 3733   1.148   2.417   3.134 -0.3799 -0.1474  0.3763
   72POPC   C2F 3734   1.117   2.432   2.985  0.0365 -0.4276  0.2596
   72POPC   C2G 3735   1.199   2.332   2.905 -0.0536 -0.1939 -0.1252
   72POPC   C2H 3736   1.172   2.354   2.756  0.5522  0.4754 -0.1398
   72POPC   C2I 3737   1.228   2.235   2.677 -0.3531 -0.2533  0.3007
   72POPC   C2J 3738   1.224   2.256   2.526 -0.1204 -0.3689  0.2786
   72POPC   C2K 3739   1.294   2.149   2.441  0.0585 -0.1597  0.1604
   72POPC   C2L 3740   1.298   2.190   2.294 -0.2336 -0.1055  0.1668
   72POPC   C2M 3741   1.159   2.185   2.231 -0.1704 -0.7278  0.0738
   72POPC   C2N 3742   1.161   2.202   2.079 -0.0289 -0.3785  0.1155
   72POPC   C2O 3743   1.028   2.175   2.008  0.3151 -0.3267 -0.5646
   72POPC   C2P 3744   0.991   2.028   2.027 -0.6169 -0.0609 -0.2815
   73POPC   CN1 3745   3.390   4.507   3.474 -0.1638 -0.2011 -0.1955
   73POPC   CN2 3746   3.174   4.422   3.443  0.1263 -0.0714  0.6490
   73POPC   CN3 3747   3.198   4.660   3.464 -0.9865 -0.3774 -0.4102
   73POPC   NTM 3748   3.249   4.530   3.509  0.0223  0.2416  0.2641
   73POPC    CA 3749   3.227   4.510   3.653  0.2572 -0.0419  0.2628
   73POPC    CB 3750   3.273   4.626   3.743 -0.3750  0.3454  0.0977
   73POPC    OA 3751   3.405   4.667   3.705 -0.0315 -0.3894  0.4597
   73POPC     P 3752   3.476   4.772   3.803 -0.0835  0.1672 -0.0890
   73POPC    OB 3753   3.616   4.724   3.806 -0.3214 -0.5292  0.0374
   73POPC    OC 3754   3.405   4.770   3.933 -0.1268 -0.1943 -0.1199
   73POPC    OD 3755   3.458   4.916   3.732 -0.3778  0.0175 -0.3188
   73POPC    CC 3756   3.529   4.915   3.608  0.0161 -0.2161 -0.0938
   73POPC    CD 3757   3.461   5.000   3.501 -0.1398 -0.4610 -0.1893
   73POPC    OE 3758   3.505   4.993   3.366 -0.2058 -0.6011 -0.2034
   73POPC   C1A 3759   3.489   4.880   3.297  0.6102 -0.8878  0.0671
   73POPC    OF 3760   3.410   4.794   3.336  0.3344 -0.4250  0.5476
   73POPC   C1B 3761   3.554   4.869   3.164  0.2248 -0.0398 -0.1972
   73POPC   C1C 3762   3.707   4.865   3.167  0.2276  0.3391  0.4008
   73POPC   C1D 3763   3.769   4.874   3.028 -0.2817 -0.7994  0.0874
   73POPC   C1E 3764   3.789   4.739   2.959 -0.0853 -0.7366  0.0209
   73POPC   C1F 3765   3.800   4.760   2.808 -0.0575 -0.0707  0.1128
   73POPC   C1G 3766   3.785   4.629   2.731  0.5652  0.0612 -0.2393
   73POPC   C1H 3767   3.774   4.662   2.582 -0.3545 -0.1292 -0.2259
   73POPC   C1I 3768   3.753   4.535   2.500  0.2352 -0.0516 -0.5067
   73POPC   C1J 3769   3.661   4.537   2.405  0.0245 -0.3388 -0.3128
   73POPC   C1K 3770   3.576   4.665   2.410  0.2883 -0.1744 -0.0018
   73POPC   C1L 3771   3.522   4.702   2.272  0.2210 -0.1806  0.0231
   73POPC   C1M 3772   3.632   4.739   2.171  0.6751 -0.2724  0.4828
   73POPC   C1N 3773   3.717   4.860   2.210  0.5408 -0.0924  0.2194
   73POPC   C1O 3774   3.620   4.977   2.193  0.4200 -0.1772  0.3189
   73POPC   C1P 3775   3.695   5.105   2.228  0.0796  0.0365  0.2765
   73POPC   C1Q 3776   3.610   5.210   2.300 -0.0898 -0.1956  0.4122
   73POPC   C1R 3777   3.567   5.156   2.436 -0.0644 -0.3339  0.3655
   73POPC    CE 3778   3.456   5.142   3.558  0.3639 -0.5104 -0.0202
   73POPC    OG 3779   3.585   5.193   3.593 -0.1051  0.4510  0.3596
   73POPC   C2A 3780   3.591   5.274   3.698 -0.2639  1.0300 -0.0695
   73POPC    OH 3781   3.506   5.272   3.787 -0.4489  0.3204 -0.2535
   73POPC   C2B 3782   3.729   5.321   3.727 -0.0722  0.3766  0.0969
   73POPC   C2C 3783   3.771   5.435   3.635  0.0260  0.0062 -0.3167
   73POPC   C2D 3784   3.749   5.424   3.484  0.4928  0.7897 -0.4423
   73POPC   C2E 3785   3.847   5.326   3.420 -0.1176  0.1185 -0.3516
   73POPC   C2F 3786   3.821   5.306   3.270 -0.4296 -0.6199 -0.2050
   73POPC   C2G 3787   3.922   5.211   3.206  0.2289  0.3064 -0.5572
   73POPC   C2H 3788   4.069   5.247   3.233  0.3074 -0.1744 -0.3406
   73POPC   C2I 3789   4.164   5.135   3.192  0.2173 -0.3906  0.0283
   73POPC   C2J 3790   4.136   5.009   3.275 -0.1169 -0.2739  0.0954
   73POPC   C2K 3791   4.204   4.889   3.208  1.1806  0.1648  0.5819
   73POPC   C2L 3792   4.182   4.887   3.056  0.4867 -0.0822  0.6805
   73POPC   C2M 3793   4.283   4.786   3.001  0.3642  0.3749 -0.3988
   73POPC   C2N 3794   4.246   4.715   2.870  0.2186  0.2557 -0.2940
   73POPC   C2O 3795   4.358   4.618   2.829  0.3780  0.2901  0.0518
   73POPC   C2P 3796   4.311   4.538   2.708 -0.0054 -0.3128  0.5919
   74POPC   CN1 3797   5.093   2.733   3.945 -0.7281 -0.2663  0.2664
   74POPC   CN2 3798   5.036   2.823   3.735 -0.7752  0.1914 -0.9463
   74POPC   CN3 3799   4.985   2.947   3.940  0.2815 -0.2440  0.3728
   74POPC   NTM 3800   4.993   2.815   3.876  0.2775  0.2320 -0.6116
   74POPC    CA 3801   4.861   2.750   3.882  0.5383 -0.2676 -0.2761
   74POPC    CB 3802   4.740   2.821   3.821  0.6799  0.3921  0.2050
   74POPC    OA 3803   4.705   2.938   3.896 -0.3108  0.2691 -0.0468
   74POPC     P 3804   4.580   3.004   3.820 -0.2553  0.0220 -0.3520
   74POPC    OB 3805   4.529   3.110   3.909 -0.4825 -0.0475 -0.3975
   74POPC    OC 3806   4.482   2.895   3.795 -0.3726 -0.0270  0.3182
   74POPC    OD 3807   4.647   3.051   3.681  0.7219 -0.2682  0.0141
   74POPC    CC 3808   4.734   3.164   3.698 -0.3292  0.5382  0.1608
   74POPC    CD 3809   4.817   3.196   3.573 -0.4170  0.1343 -0.0048
   74POPC    OE 3810   4.868   3.081   3.505  0.0239  0.3850 -0.1008
   74POPC   C1A 3811   4.833   3.081   3.377  0.5270  0.3511 -0.2379
   74POPC    OF 3812   4.795   3.187   3.326 -0.2237  0.2535  0.1135
   74POPC   C1B 3813   4.866   2.950   3.316  0.6787  0.1733  0.2227
   74POPC   C1C 3814   4.777   2.826   3.325  0.2010  0.5389  0.6106
   74POPC   C1D 3815   4.792   2.756   3.460 -0.0950  0.0090  0.3699
   74POPC   C1E 3816   4.706   2.632   3.483 -0.2830  0.0602 -0.0426
   74POPC   C1F 3817   4.561   2.666   3.521 -0.3936  0.0018 -0.4082
   74POPC   C1G 3818   4.474   2.541   3.518 -0.2962 -0.0899  0.2627
   74POPC   C1H 3819   4.328   2.585   3.526 -0.2351  0.2435 -0.3980
   74POPC   C1I 3820   4.231   2.466   3.527  0.3472 -0.2297  0.1631
   74POPC   C1J 3821   4.120   2.463   3.455 -0.1000  0.1111  0.8309
   74POPC   C1K 3822   4.093   2.589   3.373  0.0848 -0.1546  0.3597
   74POPC   C1L 3823   4.043   2.565   3.230  0.1600  0.0468  0.2992
   74POPC   C1M 3824   3.985   2.691   3.165  0.1467  0.0610  0.3386
   74POPC   C1N 3825   3.974   2.677   3.013  0.1955 -0.3952  0.3749
   74POPC   C1O 3826   4.103   2.687   2.932 -0.0395 -0.0659  0.0412
   74POPC   C1P 3827   4.049   2.694   2.789 -0.2395 -0.0387  0.1177
   74POPC   C1Q 3828   3.968   2.817   2.747  0.4425  0.2140 -0.4727
   74POPC   C1R 3829   3.860   2.778   2.646  0.0105  0.0176  0.0600
   74POPC    CE 3830   4.903   3.315   3.616 -0.1778 -0.1517  0.3119
   74POPC    OG 3831   4.988   3.361   3.510 -0.3987 -0.3675  0.0374
   74POPC   C2A 3832   4.930   3.427   3.411  0.6673  0.4776 -0.0500
   74POPC    OH 3833   4.861   3.523   3.443  0.1116 -0.0799  0.4604
   74POPC   C2B 3834   5.020   3.423   3.294  0.6101 -0.4263 -0.0746
   74POPC   C2C 3835   4.938   3.433   3.165  0.2852  0.0894  0.1684
   74POPC   C2D 3836   5.032   3.446   3.045  0.0904  0.0684  0.0148
   74POPC   C2E 3837   5.101   3.318   2.998  0.0609  0.1984 -0.3879
   74POPC   C2F 3838   4.993   3.217   2.958  0.0166  0.2018 -0.2782
   74POPC   C2G 3839   5.048   3.080   2.914  0.3166  0.2083  0.0721
   74POPC   C2H 3840   4.932   2.981   2.900  0.3779  0.0249  0.8180
   74POPC   C2I 3841   4.996   2.846   2.868 -0.2152 -0.0752  0.0335
   74POPC   C2J 3842   4.895   2.739   2.827 -0.0037 -0.3383  0.1994
   74POPC   C2K 3843   4.845   2.752   2.683  0.0342 -0.3521  0.1852
   74POPC   C2L 3844   4.963   2.714   2.594 -0.0899  0.0615 -0.1578
   74POPC   C2M 3845   4.924   2.709   2.446  0.5171 -0.1885 -0.3132
   74POPC   C2N 3846   4.897   2.845   2.381  0.3930 -0.3101 -0.5190
   74POPC   C2O 3847   4.805   2.814   2.263 -0.2661 -0.4246  0.0119
   74POPC   C2P 3848   4.772   2.935   2.175  0.5668  0.1601  0.4882
   75POPC   CN1 3849   1.160   5.314   3.777 -0.0488  0.0412 -0.4912
   75POPC   CN2 3850   1.059   5.527   3.804  0.3120  0.3557  0.1575
   75POPC   CN3 3851   1.229   5.517   3.646  0.2744 -0.1540  0.2533
   75POPC   NTM 3852   1.186   5.459   3.774  0.1685  0.0232  0.2983
   75POPC    CA 3853   1.286   5.499   3.874  0.2134  0.0825  0.2302
   75POPC    CB 3854   1.428   5.443   3.862  0.1215 -0.1521  0.2208
   75POPC    OA 3855   1.446   5.303   3.840  0.4953 -0.1081  0.2369
   75POPC     P 3856   1.565   5.271   3.736  0.3458  0.1580 -0.0180
   75POPC    OB 3857   1.582   5.125   3.743  0.4527  0.1383 -0.6994
   75POPC    OC 3858   1.669   5.373   3.764  0.1803  0.4795 -0.5567
   75POPC    OD 3859   1.489   5.310   3.600 -0.4085 -0.1096  0.3211
   75POPC    CC 3860   1.441   5.195   3.529  0.1562 -0.2702  0.1924
   75POPC    CD 3861   1.359   5.230   3.404  0.6236 -0.3564 -0.1398
   75POPC    OE 3862   1.300   5.113   3.348 -0.6021  0.4050 -0.4662
   75POPC   C1A 3863   1.204   5.051   3.416  0.6066 -0.5743  0.4069
   75POPC    OF 3864   1.178   5.084   3.531 -0.0517  0.2747  0.0333
   75POPC   C1B 3865   1.146   4.936   3.342 -0.1951  0.0712  0.0069
   75POPC   C1C 3866   1.016   4.973   3.270 -0.0098  0.3694 -0.1777
   75POPC   C1D 3867   0.963   4.863   3.177 -0.0085  0.4688 -0.2962
   75POPC   C1E 3868   0.849   4.910   3.087 -0.1002  0.4572 -0.1862
   75POPC   C1F 3869   0.724   4.921   3.175 -0.1152 -0.4504 -0.0776
   75POPC   C1G 3870   0.594   4.962   3.106 -0.1470 -0.0939  0.1880
   75POPC   C1H 3871   0.563   4.874   2.985  0.2705  0.1686 -0.1126
   75POPC   C1I 3872   0.475   4.934   2.875  0.1198 -0.2503 -0.2225
   75POPC   C1J 3873   0.539   4.949   2.759  0.2491  0.6548 -0.0342
   75POPC   C1K 3874   0.690   4.926   2.747  0.1727  0.1769 -0.0809
   75POPC   C1L 3875   0.764   5.034   2.667  0.2683  0.2932  0.1635
   75POPC   C1M 3876   0.912   4.998   2.655  0.1013 -0.4304  0.2185
   75POPC   C1N 3877   0.984   5.092   2.558  0.3196 -0.3430  0.4655
   75POPC   C1O 3878   1.127   5.044   2.534  0.3170 -0.3857  0.5322
   75POPC   C1P 3879   1.187   5.130   2.422 -0.3796 -0.4704  0.0894
   75POPC   C1Q 3880   1.292   5.058   2.338 -0.0365  0.3113 -0.1692
   75POPC   C1R 3881   1.432   5.070   2.398 -0.1669 -0.0257  0.2048
   75POPC    CE 3882   1.432   5.319   3.303  0.3166  0.3112  0.2193
   75POPC    OG 3883   1.535   5.262   3.221 -0.2278  0.1417 -0.3516
   75POPC   C2A 3884   1.630   5.351   3.191  0.3230 -0.2907  0.0852
   75POPC    OH 3885   1.643   5.455   3.254  0.0496 -0.1994 -0.0057
   75POPC   C2B 3886   1.725   5.282   3.101 -0.0247 -0.4336 -0.1753
   75POPC   C2C 3887   1.728   5.361   2.970  0.2813  0.5020  0.3842
   75POPC   C2D 3888   1.843   5.328   2.874 -0.4041 -0.2652 -0.1887
   75POPC   C2E 3889   1.798   5.209   2.789 -0.7739  0.0254 -0.4018
   75POPC   C2F 3890   1.892   5.175   2.673  0.4040 -0.1881  0.5913
   75POPC   C2G 3891   1.866   5.040   2.606 -0.0145  0.1531  0.0572
   75POPC   C2H 3892   1.957   5.021   2.484  0.1331  0.0119  0.1892
   75POPC   C2I 3893   1.903   5.108   2.371 -0.1305 -0.4448 -0.0384
   75POPC   C2J 3894   2.024   5.118   2.278 -0.4661  0.1803 -0.4241
   75POPC   C2K 3895   2.027   5.206   2.153  0.2073  0.2235 -0.3821
   75POPC   C2L 3896   2.155   5.192   2.069  0.2874  0.1141 -0.2429
   75POPC   C2M 3897   2.139   5.290   1.953  0.1227  0.0696 -0.2580
   75POPC   C2N 3898   2.159   5.429   2.012 -1.1503  0.0351  0.2758
   75POPC   C2O 3899   2.132   5.534   1.904 -0.3306 -0.2976 -0.2565
   75POPC   C2P 3900   2.182   5.674   1.938 -0.0993 -0.3429 -0.4093
   76POPC   CN1 3901   0.517   5.396   3.903  0.1181 -0.4445  0.1742
   76POPC   CN2 3902   0.561   5.634   3.863 -0.5686 -0.5609  0.4104
   76POPC   CN3 3903   0.686   5.476   3.749  0.2182 -0.2917 -0.0457
   76POPC   NTM 3904   0.618   5.500   3.877 -0.0217 -0.3899 -0.1549
   76POPC    CA 3905   0.716   5.515   3.986 -0.4942 -0.1985  0.2489
   76POPC    CB 3906   0.796   5.396   0.049 -0.0399 -0.1559 -0.3392
   76POPC    OA 3907   0.880   5.322   3.949  0.7706  0.6320 -0.2427
   76POPC     P 3908   0.920   5.175   0.011 -0.2089  0.4265 -0.0434
   76POPC    OB 3909   0.796   5.108   0.056 -0.0275 -0.3030 -0.5990
   76POPC    OC 3910   1.040   5.181   0.098 -0.2666 -0.6533  0.1338
   76POPC    OD 3911   0.976   5.107   3.864  0.3770  0.0324  0.3887
   76POPC    CC 3912   0.884   5.017   3.801  0.2718  0.2942  0.1641
   76POPC    CD 3913   0.781   5.094   3.719 -0.0072  0.1355  0.3645
   76POPC    OE 3914   0.673   5.008   3.680  0.0677  0.2166 -0.0227
   76POPC   C1A 3915   0.561   5.066   3.638  0.0804  0.2439 -0.0185
   76POPC    OF 3916   0.518   5.170   3.688 -0.8876  0.0090 -0.3464
   76POPC   C1B 3917   0.472   4.965   3.577  0.0305  0.2097  0.1117
   76POPC   C1C 3918   0.448   4.955   3.426  0.2874  0.2399  0.0693
   76POPC   C1D 3919   0.303   4.919   3.395  0.2868  0.3437 -0.0489
   76POPC   C1E 3920   0.277   4.976   3.256  0.3115 -0.4110 -0.3727
   76POPC   C1F 3921   0.146   4.922   3.197  0.0860 -0.4478  0.1554
   76POPC   C1G 3922   0.133   4.954   3.048  0.2989 -0.0437  0.2231
   76POPC   C1H 3923   6.253   4.929   3.016  0.2811  0.1115  0.1800
   76POPC   C1I 3924   6.205   4.784   3.031 -0.3905  0.2776 -0.3188
   76POPC   C1J 3925   6.111   4.716   2.966 -0.2379 -0.1823 -0.0647
   76POPC   C1K 3926   6.015   4.782   2.866  0.0562 -0.2845 -0.4173
   76POPC   C1L 3927   5.874   4.798   2.922  0.2318 -0.2624  0.0257
   76POPC   C1M 3928   5.783   4.802   2.799 -0.1648  0.1964  0.3266
   76POPC   C1N 3929   5.779   4.937   2.728 -0.0774  0.0244 -0.0116
   76POPC   C1O 3930   5.762   4.918   2.577 -0.1272  0.4518 -0.0615
   76POPC   C1P 3931   5.771   5.051   2.501 -0.4695  0.5960  0.1497
   76POPC   C1Q 3932   5.697   5.053   2.367  0.1843 -0.0532 -0.2258
   76POPC   C1R 3933   5.694   5.196   2.313 -0.4888  0.0475  0.0706
   76POPC    CE 3934   0.867   5.147   3.605  0.0257 -0.1888  0.2355
   76POPC    OG 3935   0.806   5.227   3.502 -0.1536 -0.5409  0.0675
   76POPC   C2A 3936   0.882   5.321   3.447 -0.0656 -0.6029  0.0823
   76POPC    OH 3937   0.988   5.360   3.497 -0.0649 -0.1612 -0.2592
   76POPC   C2B 3938   0.823   5.391   3.331  0.8962  0.3235  0.1332
   76POPC   C2C 3939   0.883   5.326   3.206 -0.2125 -0.5143  0.0185
   76POPC   C2D 3940   0.823   5.381   3.077  0.4648 -0.7646 -0.4122
   76POPC   C2E 3941   0.676   5.342   3.056  0.1683  0.1926 -0.1658
   76POPC   C2F 3942   0.631   5.371   2.913  0.2030  0.1860 -0.1783
   76POPC   C2G 3943   0.502   5.289   2.899  0.2018  0.2189 -0.3642
   76POPC   C2H 3944   0.419   5.330   2.777 -0.0546 -0.6192 -0.4755
   76POPC   C2I 3945   0.291   5.248   2.762 -0.0945 -0.5659 -0.4214
   76POPC   C2J 3946   0.212   5.291   2.639  0.1891  0.2606 -0.3244
   76POPC   C2K 3947   0.283   5.272   2.505  0.6315 -0.2961 -0.0124
   76POPC   C2L 3948   0.199   5.322   2.387  0.2324  0.5164  0.6048
   76POPC   C2M 3949   0.274   5.303   2.255  0.1582  0.2948  0.5934
   76POPC   C2N 3950   0.203   5.383   2.145  0.2066 -0.3591  0.0815
   76POPC   C2O 3951   0.262   5.360   2.005  0.3234  0.2507  0.0276
   76POPC   C2P 3952   0.198   5.459   1.909  0.2911 -0.1734 -0.3895
   77POPC   CN1 3953   5.285   4.633   3.896  0.1643  0.1590 -0.0443
   77POPC   CN2 3954   5.480   4.779   3.910  0.5237 -0.9120 -0.4530
   77POPC   CN3 3955   5.480   4.552   3.973 -0.2266  0.3536  0.1349
   77POPC   NTM 3956   5.400   4.675   3.977 -0.2839  0.3059  0.5295
   77POPC    CA 3957   5.364   4.710   0.126  0.2988  0.4336  0.6536
   77POPC    CB 3958   5.266   4.817   0.174 -0.1790  0.4128 -0.2663
   77POPC    OA 3959   5.277   4.941   0.103 -0.0731  0.3906 -0.2889
   77POPC     P 3960   5.278   5.059   0.213 -0.1483  0.1218  0.0046
   77POPC    OB 3961   5.421   5.066   0.252 -0.2371 -0.3567  0.4107
   77POPC    OC 3962   5.171   5.029   0.310  0.1269 -0.4549  0.1349
   77POPC    OD 3963   5.233   5.193   0.134 -0.6418 -0.1364 -0.1538
   77POPC    CC 3964   5.338   5.250   0.057 -0.0843 -0.6545  0.2088
   77POPC    CD 3965   5.319   5.219   3.897  0.2905 -0.4118  0.1081
   77POPC    OE 3966   5.414   5.282   3.810 -0.3583 -0.0471 -0.3431
   77POPC   C1A 3967   5.474   5.216   3.712  0.4419  0.2194 -0.0426
   77POPC    OF 3968   5.496   5.097   3.733 -0.3111 -0.0120 -0.5340
   77POPC   C1B 3969   5.530   5.299   3.604 -0.2706 -0.0847 -0.6580
   77POPC   C1C 3970   5.434   5.292   3.486 -0.2183 -0.2640 -0.6898
   77POPC   C1D 3971   5.477   5.377   3.366  0.1766  0.3744 -0.0998
   77POPC   C1E 3972   5.374   5.372   3.253  0.0280  0.0810  0.0471
   77POPC   C1F 3973   5.390   5.496   3.165  0.1322 -0.1402 -0.2445
   77POPC   C1G 3974   5.287   5.497   3.052 -0.0454  0.1480 -0.0811
   77POPC   C1H 3975   5.323   5.624   2.976 -0.6707  0.4803  0.1707
   77POPC   C1I 3976   5.239   5.639   2.848 -0.2429  0.1418 -0.1503
   77POPC   C1J 3977   5.260   5.731   2.754 -0.1417  0.4819  0.2029
   77POPC   C1K 3978   5.372   5.832   2.775  0.1855  0.1355  0.1300
   77POPC   C1L 3979   5.308   5.969   2.752  0.0567  0.0638  0.0621
   77POPC   C1M 3980   5.407   6.081   2.786  0.2663 -0.0671 -0.1105
   77POPC   C1N 3981   5.327   6.209   2.812  0.5613  0.0779  0.0822
   77POPC   C1O 3982   5.296   6.274   2.676  0.7165 -0.0821 -0.0298
   77POPC   C1P 3983   5.214   0.105   2.677  0.3970 -0.2866  0.0830
   77POPC   C1Q 3984   5.149   0.141   2.543  0.6372 -0.2378 -0.0199
   77POPC   C1R 3985   5.253   0.176   2.437  0.2914  0.9932  0.0326
   77POPC    CE 3986   5.173   5.246   3.860  0.3973 -0.1687 -0.1397
   77POPC    OG 3987   5.125   5.243   3.725  0.3793  0.0489 -0.1386
   77POPC   C2A 3988   4.992   5.249   3.729  0.4169  0.8026  0.1295
   77POPC    OH 3989   4.927   5.213   3.828  0.4241  0.4092 -0.0068
   77POPC   C2B 3990   4.936   5.258   3.593  0.3910 -0.4323  0.0472
   77POPC   C2C 3991   4.927   5.402   3.543 -0.7852 -0.6703 -0.4657
   77POPC   C2D 3992   4.851   5.420   3.411 -0.1392  0.1131 -0.7387
   77POPC   C2E 3993   4.923   5.345   3.299  0.4453 -0.4656  0.0053
   77POPC   C2F 3994   4.867   5.355   3.156  0.2491  0.4694  0.1371
   77POPC   C2G 3995   4.941   5.253   3.070 -0.2192 -0.1519  0.4594
   77POPC   C2H 3996   4.886   5.246   2.927 -0.0983  0.0544  0.4027
   77POPC   C2I 3997   4.873   5.379   2.853 -0.1766  0.0272  0.3669
   77POPC   C2J 3998   4.791   5.339   2.731  0.1073 -0.3232  0.2897
   77POPC   C2K 3999   4.752   5.462   2.648  0.3618 -0.4646 -0.0411
   77POPC   C2L 4000   4.682   5.426   2.517  0.1431 -0.4771  0.0785
   77POPC   C2M 4001   4.633   5.548   2.439  0.8525  0.1086  0.5426
   77POPC   C2N 4002   4.664   5.548   2.289 -0.0373  0.5396  0.3523
   77POPC   C2O 4003   4.599   5.667   2.218 -0.3118  0.1963  0.0250
   77POPC   C2P 4004   4.631   5.661   2.069 -0.8180  0.4213 -0.0946
   78POPC   CN1 4005   0.235   1.898   0.092 -0.5505 -0.0276  0.1560
   78POPC   CN2 4006   0.276   1.911   0.324  0.3465  0.3161  0.1184
   78POPC   CN3 4007   0.444   1.842   0.170  0.0781  0.3737 -0.3766
   78POPC   NTM 4008   0.302   1.830   0.204  0.1651  0.4202  0.0088
   78POPC    CA 4009   0.270   1.687   0.222 -0.1373  0.5181  0.2734
   78POPC    CB 4010   0.134   1.659   0.286 -0.0776  0.7927  0.5193
   78POPC    OA 4011   0.023   1.685   0.200 -0.1722 -0.4929  0.2348
   78POPC     P 4012   6.257   1.566   0.098 -0.0943 -0.4301  0.1349
   78POPC    OB 4013   6.120   1.573   0.042  0.0893 -0.1280 -0.2827
   78POPC    OC 4014   0.068   1.447   0.139  0.1328 -0.2012  0.3643
   78POPC    OD 4015   0.076   1.641   3.974 -0.1071 -0.4773  0.0932
   78POPC    CC 4016   0.116   1.555   3.867  0.6128 -0.1395  0.0775
   78POPC    CD 4017   0.043   1.594   3.739  0.4136 -0.4545  0.0923
   78POPC    OE 4018   0.012   1.484   3.653  0.3654 -0.2574 -0.1430
   78POPC   C1A 4019   6.205   1.502   3.543 -0.7666 -0.6104  0.5495
   78POPC    OF 4020   6.162   1.614   3.519 -0.0671 -0.3905  0.3054
   78POPC   C1B 4021   6.171   1.381   3.465  0.0992 -0.6047  0.1553
   78POPC   C1C 4022   6.196   1.425   3.320  0.2984  0.2784  0.4495
   78POPC   C1D 4023   6.188   1.315   3.214  0.8057  0.2783  0.4095
   78POPC   C1E 4024   6.227   1.387   3.085 -0.1855  0.1004  0.0027
   78POPC   C1F 4025   6.115   1.483   3.043 -0.0755  0.0581 -0.3903
   78POPC   C1G 4026   6.015   1.405   2.957 -0.3209 -0.0274 -0.0282
   78POPC   C1H 4027   6.051   1.396   2.809  0.3239 -0.2436  0.1372
   78POPC   C1I 4028   5.936   1.345   2.722  0.3957  0.1249 -0.1762
   78POPC   C1J 4029   5.865   1.424   2.642 -0.0047 -0.1582 -0.1030
   78POPC   C1K 4030   5.912   1.569   2.631 -0.3199 -0.0444  0.0131
   78POPC   C1L 4031   5.860   1.610   2.493 -0.3544 -0.4285 -0.0885
   78POPC   C1M 4032   5.960   1.579   2.381 -0.4097  0.0672 -0.2778
   78POPC   C1N 4033   5.882   1.572   2.250 -0.5518 -0.0079 -0.1895
   78POPC   C1O 4034   5.977   1.564   2.130  0.2449 -0.1014  0.4386
   78POPC   C1P 4035   5.886   1.557   2.007  0.3937  0.3561  0.2983
   78POPC   C1Q 4036   5.964   1.560   1.875  0.0811  0.4540  0.1177
   78POPC   C1R 4037   5.866   1.528   1.762  0.1496 -0.4149  0.3011
   78POPC    CE 4038   0.133   1.702   3.680 -0.0875  0.1324  0.3907
   78POPC    OG 4039   0.258   1.662   3.622 -0.1901 -0.1500  0.3684
   78POPC   C2A 4040   0.251   1.615   3.498 -0.1986  0.0312  0.3004
   78POPC    OH 4041   0.167   1.656   3.418  0.1414 -0.7331 -0.4703
   78POPC   C2B 4042   0.363   1.528   3.457 -0.1676 -0.0218  0.4989
   78POPC   C2C 4043   0.322   1.417   3.360 -0.0306  0.1247  0.2703
   78POPC   C2D 4044   0.359   1.444   3.214 -1.2301  0.1583 -0.0406
   78POPC   C2E 4045   0.334   1.321   3.126 -0.1716 -0.1839  0.1156
   78POPC   C2F 4046   0.328   1.362   2.979 -1.0750 -0.1307  0.1585
   78POPC   C2G 4047   0.281   1.244   2.893 -0.3190 -0.5142  0.2606
   78POPC   C2H 4048   0.235   1.313   2.764 -0.3712  0.0721  0.5884
   78POPC   C2I 4049   0.134   1.224   2.691  0.2381 -0.2007  0.0635
   78POPC   C2J 4050   0.074   1.305   2.575 -0.0237 -0.2052  0.1950
   78POPC   C2K 4051   0.029   1.208   2.466  0.1373 -0.2345  0.1544
   78POPC   C2L 4052   0.003   1.290   2.340 -0.9762 -0.0081  0.5256
   78POPC   C2M 4053   6.227   1.187   2.235  0.4131 -0.1109  0.0409
   78POPC   C2N 4054   6.229   1.240   2.091  0.0770 -0.0069  0.0748
   78POPC   C2O 4055   6.150   1.155   1.991 -0.3743  0.3678  0.1048
   78POPC   C2P 4056   6.195   1.186   1.848 -0.0979  0.0544  0.1208
   79POPC   CN1 4057   4.307   1.814   3.550  0.0273  0.2831 -0.2004
   79POPC   CN2 4058   4.433   1.950   3.396 -0.3521  0.2802  0.1281
   79POPC   CN3 4059   4.544   1.839   3.565 -0.3806 -0.2967  0.2693
   79POPC   NTM 4060   4.418   1.910   3.536  0.0058  0.3677  0.1915
   79POPC    CA 4061   4.403   2.024   3.627 -0.2475 -0.1917  0.8636
   79POPC    CB 4062   4.269   2.099   3.629 -0.2666 -0.2134  0.4312
   79POPC    OA 4063   4.157   2.021   3.670 -0.4760 -0.1858 -0.0743
   79POPC     P 4064   4.025   2.112   3.654 -0.3354 -0.0456 -0.4503
   79POPC    OB 4065   4.033   2.246   3.717  0.2123 -0.1542 -0.2839
   79POPC    OC 4066   3.916   2.029   3.710  0.5529 -0.9466 -0.0387
   79POPC    OD 4067   4.007   2.137   3.496 -0.0792  0.4732 -0.4031
   79POPC    CC 4068   3.959   2.011   3.447  0.4502  0.2092 -0.2440
   79POPC    CD 4069   4.025   1.965   3.317  0.0205 -0.1515 -0.3340
   79POPC    OE 4070   4.033   2.046   3.200  0.6210 -0.1574 -0.2991
   79POPC   C1A 4071   4.152   2.065   3.144  0.6201  0.2020 -0.1798
   79POPC    OF 4072   4.248   2.001   3.188 -0.2578 -0.3822  0.9472
   79POPC   C1B 4073   4.141   2.166   3.036  0.1720 -0.0595 -0.3797
   79POPC   C1C 4074   4.113   2.108   2.897 -0.3471 -0.5208 -0.0840
   79POPC   C1D 4075   4.085   2.212   2.789  0.0590 -0.2665  0.0546
   79POPC   C1E 4076   4.095   2.138   2.656 -0.2690 -0.0367 -0.0987
   79POPC   C1F 4077   4.103   2.238   2.540  0.2683  0.0970  0.0507
   79POPC   C1G 4078   4.157   2.172   2.413 -0.4288 -0.3577 -0.0172
   79POPC   C1H 4079   4.103   2.225   2.280 -0.3128 -0.1741  0.0078
   79POPC   C1I 4080   4.145   2.369   2.252 -0.2799 -0.1878 -0.0122
   79POPC   C1J 4081   4.139   2.436   2.137 -0.3188 -0.5654 -0.2296
   79POPC   C1K 4082   4.075   2.362   2.019 -0.7688  0.3613 -0.5712
   79POPC   C1L 4083   4.134   2.408   1.886  0.1978  0.0328 -0.2652
   79POPC   C1M 4084   4.083   2.322   1.770 -0.2138 -0.4373  0.2563
   79POPC   C1N 4085   4.164   2.340   1.641 -0.7702 -0.0435 -0.0483
   79POPC   C1O 4086   4.286   2.249   1.660 -0.6899  0.0373 -0.1828
   79POPC   C1P 4087   4.242   2.103   1.650 -0.3015 -0.0418 -0.8689
   79POPC   C1Q 4088   4.359   2.011   1.688 -0.1577  0.4445 -0.0954
   79POPC   C1R 4089   4.478   2.010   1.593  0.2149  0.1444  0.3721
   79POPC    CE 4090   3.962   1.825   3.304 -0.2569 -0.0370 -0.2372
   79POPC    OG 4091   4.017   1.735   3.400 -0.4067  0.4862  0.3461
   79POPC   C2A 4092   3.936   1.633   3.429 -0.3715  0.1595 -0.6671
   79POPC    OH 4093   3.814   1.651   3.429 -0.3636  0.2379 -0.1220
   79POPC   C2B 4094   4.013   1.515   3.473  0.0651  0.5342 -0.4109
   79POPC   C2C 4095   4.045   1.418   3.359 -0.0218 -0.0582  0.0644
   79POPC   C2D 4096   3.951   1.297   3.364 -0.2800  0.1350 -0.1172
   79POPC   C2E 4097   3.995   1.190   3.265 -0.0042  0.1742 -0.0375
   79POPC   C2F 4098   3.986   1.241   3.121 -0.5857  0.9105  0.2578
   79POPC   C2G 4099   3.842   1.249   3.070 -0.5024 -0.2421 -0.2004
   79POPC   C2H 4100   3.840   1.307   2.928  0.2524 -0.3961 -0.2753
   79POPC   C2I 4101   3.937   1.234   2.835  0.9893  0.2814 -0.0482
   79POPC   C2J 4102   3.938   1.282   2.690 -0.3919 -0.2456 -0.2437
   79POPC   C2K 4103   3.825   1.221   2.606 -0.6325 -0.6566  0.3769
   79POPC   C2L 4104   3.880   1.082   2.574 -0.3727 -0.4171 -0.2205
   79POPC   C2M 4105   3.803   0.979   2.490 -0.0337 -0.8879  0.0404
   79POPC   C2N 4106   3.769   1.036   2.352 -0.0981  0.3189  0.5418
   79POPC   C2O 4107   3.731   0.912   2.271 -0.3132  0.2458  0.7538
   79POPC   C2P 4108   3.703   0.941   2.123  0.2098  0.2863  0.6635
   80POPC   CN1 4109   3.015   1.390   3.439 -1.2712 -0.1034 -0.0614
   80POPC   CN2 4110   3.204   1.284   3.556  0.1404  0.4145  0.1244
   80POPC   CN3 4111   3.034   1.156   3.466  0.3171 -0.0143  0.3049
   80POPC   NTM 4112   3.059   1.285   3.532  0.2019  0.3052 -0.2625
   80POPC    CA 4113   2.992   1.288   3.663 -0.1633 -0.4953 -0.4232
   80POPC    CB 4114   2.839   1.292   3.674 -0.1322 -0.0905 -0.0985
   80POPC    OA 4115   2.767   1.196   3.596 -0.1439 -0.2263  0.0797
   80POPC     P 4116   2.630   1.254   3.532 -0.1593 -0.2245  0.1144
   80POPC    OB 4117   2.576   1.369   3.608  0.3150  0.2643 -0.2794
   80POPC    OC 4118   2.545   1.144   3.482 -0.5774  0.1057  0.1011
   80POPC    OD 4119   2.709   1.314   3.405 -0.2523  0.5954  0.4391
   80POPC    CC 4120   2.608   1.358   3.314 -0.1298  0.7662  0.3852
   80POPC    CD 4121   2.663   1.448   3.204 -0.0348  0.3569  0.0926
   80POPC    OE 4122   2.558   1.507   3.126 -0.0450  0.4607  0.1834
   80POPC   C1A 4123   2.509   1.622   3.169 -0.8741 -0.0115  0.5132
   80POPC    OF 4124   2.514   1.662   3.285 -0.0780 -0.2410  0.5598
   80POPC   C1B 4125   2.425   1.688   3.066 -0.6916 -0.3055  0.1724
   80POPC   C1C 4126   2.462   1.836   3.050 -0.5564 -0.3419  0.1487
   80POPC   C1D 4127   2.384   1.911   2.942  0.0722 -0.2791 -0.2625
   80POPC   C1E 4128   2.233   1.916   2.967  0.2278  0.8442  0.5288
   80POPC   C1F 4129   2.144   1.975   2.858  0.1109 -0.2587  0.0168
   80POPC   C1G 4130   2.153   1.893   2.728  0.0453 -0.1740 -0.0413
   80POPC   C1H 4131   2.063   1.770   2.725 -0.2680  0.0433  0.3382
   80POPC   C1I 4132   2.111   1.677   2.613 -0.4358  0.0348  0.2731
   80POPC   C1J 4133   2.025   1.627   2.525  0.1429 -0.3347 -0.0934
   80POPC   C1K 4134   1.874   1.652   2.530  0.2701  0.5339 -0.4098
   80POPC   C1L 4135   1.802   1.676   2.397 -0.3306 -0.2377 -0.2358
   80POPC   C1M 4136   1.650   1.673   2.410 -0.3102 -0.2525 -0.0060
   80POPC   C1N 4137   1.584   1.686   2.273  0.1483 -0.2152 -0.2232
   80POPC   C1O 4138   1.434   1.705   2.291  0.2157  0.3418 -0.2139
   80POPC   C1P 4139   1.370   1.706   2.152 -0.2194 -0.2750 -0.0267
   80POPC   C1Q 4140   1.373   1.570   2.083 -0.8619 -0.5523  0.4787
   80POPC   C1R 4141   1.273   1.557   1.968  0.0602  0.0038 -0.4048
   80POPC    CE 4142   2.757   1.359   3.122 -0.3895  0.2501 -0.1998
   80POPC    OG 4143   2.856   1.421   3.041 -0.2106 -0.1956 -0.3234
   80POPC   C2A 4144   2.976   1.363   3.037 -0.0255  0.1952 -0.5864
   80POPC    OH 4145   3.006   1.270   3.112 -0.4717  0.3704 -0.1816
   80POPC   C2B 4146   3.056   1.417   2.926 -0.1726  0.1716 -0.7047
   80POPC   C2C 4147   3.061   1.321   2.807 -0.1388 -0.6167 -0.0744
   80POPC   C2D 4148   2.992   1.379   2.683 -0.4972 -0.5798  0.1403
   80POPC   C2E 4149   2.984   1.262   2.584  0.0766 -0.2125 -0.3462
   80POPC   C2F 4150   2.905   1.284   2.455  0.0552 -0.1817 -0.3282
   80POPC   C2G 4151   2.961   1.400   2.372  0.0595 -0.0225 -0.1018
   80POPC   C2H 4152   2.874   1.413   2.247  0.4523 -0.5597 -0.4362
   80POPC   C2I 4153   2.945   1.474   2.126 -0.3777  0.6993 -0.3129
   80POPC   C2J 4154   2.845   1.447   2.014 -0.4241  0.5868 -0.2439
   80POPC   C2K 4155   2.910   1.479   1.879 -0.4162  0.0876 -0.3633
   80POPC   C2L 4156   2.963   1.623   1.870  0.2020 -0.0667  0.6270
   80POPC   C2M 4157   3.064   1.647   1.757 -0.2234  0.1731  0.2966
   80POPC   C2N 4158   3.106   1.794   1.766  0.2893  0.0626 -0.2911
   80POPC   C2O 4159   2.999   1.898   1.735 -0.0052  0.1487  0.9767
   80POPC   C2P 4160   3.053   2.039   1.707  0.3486 -0.1407  0.1738
   81POPC   CN1 4161   3.252   2.995   3.495  0.1455 -0.2846 -0.5857
   81POPC   CN2 4162   3.450   3.126   3.536  0.2242  0.1166 -0.3614
   81POPC   CN3 4163   3.466   2.941   3.393 -0.2590  0.3620 -0.4633
   81POPC   NTM 4164   3.398   2.991   3.513  0.1044  0.1275 -0.1587
   81POPC    CA 4165   3.424   2.907   3.632 -0.6482  0.1792  0.0471
   81POPC    CB 4166   3.567   2.895   3.683 -0.4985  0.3826 -0.3187
   81POPC    OA 4167   3.654   2.833   3.587 -0.0633 -0.2953  0.4988
   81POPC     P 4168   3.801   2.812   3.649  0.0673  0.0416  0.3103
   81POPC    OB 4169   3.861   2.693   3.585 -0.0797 -0.0144  0.2764
   81POPC    OC 4170   3.812   2.834   3.795 -0.9152  0.0665  0.3845
   81POPC    OD 4171   3.859   2.947   3.585  0.3706 -0.2190  0.0330
   81POPC    CC 4172   3.874   2.931   3.444  0.7597  0.0696  0.0389
   81POPC    CD 4173   3.887   3.060   3.363  0.6691 -0.0263 -0.1306
   81POPC    OE 4174   3.867   3.045   3.222  0.2353  0.3103 -0.1052
   81POPC   C1A 4175   3.745   3.071   3.175  0.2404  0.5595  0.0148
   81POPC    OF 4176   3.654   3.129   3.233 -0.1865 -0.1160  0.0290
   81POPC   C1B 4177   3.744   3.038   3.031 -0.3289  0.0975  0.1246
   81POPC   C1C 4178   3.630   3.090   2.943 -0.1321  0.2267 -0.0541
   81POPC   C1D 4179   3.502   3.007   2.959 -0.0920  0.2402  0.3391
   81POPC   C1E 4180   3.381   3.063   2.883 -0.3073 -0.2764  0.2980
   81POPC   C1F 4181   3.384   3.066   2.731  0.5898  0.0637  0.3150
   81POPC   C1G 4182   3.352   2.930   2.670  0.0731  0.2725  0.1066
   81POPC   C1H 4183   3.303   2.945   2.526  0.2006 -0.6302 -0.0423
   81POPC   C1I 4184   3.283   2.812   2.454  0.1977 -0.5260 -0.2360
   81POPC   C1J 4185   3.387   2.763   2.387  0.3418 -0.3793 -0.1224
   81POPC   C1K 4186   3.520   2.838   2.387  0.0392  0.1617  0.4125
   81POPC   C1L 4187   3.604   2.808   2.263 -0.1114  0.8240  0.1457
   81POPC   C1M 4188   3.738   2.880   2.274  0.3395  0.0926 -0.4699
   81POPC   C1N 4189   3.853   2.807   2.203  0.5911 -0.3128  0.3394
   81POPC   C1O 4190   3.822   2.814   2.053 -0.0863  0.2681  0.4996
   81POPC   C1P 4191   3.945   2.767   1.976 -0.3980 -0.0596  0.1984
   81POPC   C1Q 4192   3.926   2.811   1.831  0.0133 -0.0807  0.1361
   81POPC   C1R 4193   4.061   2.797   1.760 -0.0434  0.4234 -0.0729
   81POPC    CE 4194   4.018   3.126   3.407  0.1992  0.7592  0.1239
   81POPC    OG 4195   4.135   3.044   3.417 -0.1943  0.2284  0.4305
   81POPC   C2A 4196   4.246   3.095   3.468  0.2658  0.0491 -0.3609
   81POPC    OH 4197   4.235   3.178   3.559 -0.0063  0.0560 -0.4020
   81POPC   C2B 4198   4.367   3.012   3.452 -0.0649 -0.4918 -0.0812
   81POPC   C2C 4199   4.448   3.048   3.327  0.2289  0.3705  0.3510
   81POPC   C2D 4200   4.407   2.976   3.198  0.0005 -0.1477  0.7097
   81POPC   C2E 4201   4.502   2.999   3.081 -0.3717 -0.2461  0.3868
   81POPC   C2F 4202   4.455   2.922   2.957  0.4710  0.2521 -0.2493
   81POPC   C2G 4203   4.516   2.953   2.820  0.3551 -0.4126 -0.4532
   81POPC   C2H 4204   4.442   2.879   2.709 -0.2967 -0.0425 -0.2682
   81POPC   C2I 4205   4.459   2.923   2.563  0.2188  0.1633 -0.1466
   81POPC   C2J 4206   4.378   2.833   2.470  0.1631 -0.3726  0.4116
   81POPC   C2K 4207   4.389   2.882   2.325  0.6940 -0.9582  0.2481
   81POPC   C2L 4208   4.338   2.778   2.225  0.3168  0.0301 -0.6059
   81POPC   C2M 4209   4.424   2.790   2.099  0.6633 -0.1139 -0.3871
   81POPC   C2N 4210   4.364   2.700   1.990 -0.4368  0.3838 -0.2104
   81POPC   C2O 4211   4.414   2.746   1.854  0.1734  0.5257  0.0582
   81POPC   C2P 4212   4.411   2.626   1.759  0.3991  0.7014 -0.1726
   82POPC   CN1 4213   0.168   1.133   0.039  0.4079 -0.8218 -0.3655
   82POPC   CN2 4214   0.147   1.088   3.799 -0.0789  0.0848  0.0233
   82POPC   CN3 4215   6.228   1.177   3.916  0.0580  0.0514  0.2116
   82POPC   NTM 4216   0.074   1.083   3.926 -0.2019 -0.2968 -0.0596
   82POPC    CA 4217   0.012   0.952   3.948 -0.3886 -0.0821  0.7624
   82POPC    CB 4218   0.094   0.843   0.029 -0.5039 -0.1532  0.7863
   82POPC    OA 4219   0.222   0.830   3.956 -0.8289 -0.0329  0.0777
   82POPC     P 4220   0.263   0.676   3.937  0.4284  0.2842  0.1097
   82POPC    OB 4221   0.181   0.588   0.035  0.5443  0.0366 -0.0316
   82POPC    OC 4222   0.408   0.649   3.923  0.4037  0.0245  0.3407
   82POPC    OD 4223   0.195   0.652   3.793  0.2108  0.0303  0.2535
   82POPC    CC 4224   0.281   0.686   3.684 -0.1280 -0.3548 -0.1366
   82POPC    CD 4225   0.216   0.685   3.545 -0.4595  0.2479  0.0105
   82POPC    OE 4226   0.089   0.747   3.525 -0.5420  0.0292 -0.1516
   82POPC   C1A 4227   0.090   0.867   3.468 -0.3901  0.0282 -0.1523
   82POPC    OF 4228   0.172   0.947   3.513 -0.5717  0.1386 -0.0151
   82POPC   C1B 4229   6.233   0.916   3.403 -0.2431 -0.2884 -0.6788
   82POPC   C1C 4230   6.113   0.937   3.495  0.3407  0.1324 -0.0013
   82POPC   C1D 4231   5.980   0.972   3.427  0.2525  0.0928  0.1489
   82POPC   C1E 4232   5.876   1.024   3.526 -0.0372  0.1157 -0.1657
   82POPC   C1F 4233   5.755   1.092   3.461 -0.4379  0.2436  0.6906
   82POPC   C1G 4234   5.801   1.218   3.388  0.0530 -0.4570 -0.2417
   82POPC   C1H 4235   5.687   1.289   3.314  0.0754 -0.2389 -0.0695
   82POPC   C1I 4236   5.741   1.421   3.260 -0.0399 -0.3897 -0.5572
   82POPC   C1J 4237   5.696   1.460   3.141  0.0972  0.2091 -0.4167
   82POPC   C1K 4238   5.589   1.371   3.077 -0.0669  0.1380 -0.0435
   82POPC   C1L 4239   5.615   1.362   2.927  0.5777 -0.5719  0.1003
   82POPC   C1M 4240   5.496   1.291   2.860  0.0739 -0.0281  0.4110
   82POPC   C1N 4241   5.513   1.308   2.709  0.0204 -0.3218  0.3727
   82POPC   C1O 4242   5.384   1.262   2.642 -0.0028  0.2524  0.0155
   82POPC   C1P 4243   5.385   1.281   2.490 -0.3617 -0.1382 -0.0401
   82POPC   C1Q 4244   5.261   1.235   2.414 -0.3731 -0.3333  0.0938
   82POPC   C1R 4245   5.146   1.332   2.442  0.1942  0.2817  0.3301
   82POPC    CE 4246   0.212   0.533   3.525  0.1181  0.2525 -0.1616
   82POPC    OG 4247   0.197   0.481   3.393 -0.1707  0.0580 -0.0535
   82POPC   C2A 4248   0.112   0.380   3.377  0.3328 -0.4000  0.1201
   82POPC    OH 4249   0.071   0.311   3.470 -0.4244  0.0869  0.1586
   82POPC   C2B 4250   0.097   0.343   3.234  0.0965 -0.2207  0.0962
   82POPC   C2C 4251   0.215   0.258   3.184  0.4511  0.4647 -0.2426
   82POPC   C2D 4252   0.211   0.246   3.031  0.8095  0.2846 -0.2372
   82POPC   C2E 4253   0.302   0.136   2.975 -0.0369 -0.4197 -0.2550
   82POPC   C2F 4254   0.443   0.193   2.991 -0.3043 -0.1324  1.2258
   82POPC   C2G 4255   0.535   0.075   2.962 -0.0103  0.3772  0.0239
   82POPC   C2H 4256   0.685   0.107   2.960  0.1288 -0.2411  0.3320
   82POPC   C2I 4257   0.777   6.282   2.946  0.3767  0.0290 -0.4420
   82POPC   C2J 4258   0.720   6.175   2.853  0.3064 -0.1246 -0.2234
   82POPC   C2K 4259   0.808   6.050   2.861  0.0745 -0.2830 -0.1191
   82POPC   C2L 4260   0.755   5.933   2.778 -0.2467 -0.2620  0.0562
   82POPC   C2M 4261   0.859   5.821   2.784  0.0116 -0.0072  0.4299
   82POPC   C2N 4262   0.815   5.705   2.694 -0.2387  0.6025 -0.2383
   82POPC   C2O 4263   0.913   5.589   2.705 -0.5865  0.3604  0.3431
   82POPC   C2P 4264   0.848   5.469   2.635 -0.1166 -0.0914  0.6702
   83POPC   CN1 4265   1.547   4.290   3.884  0.4019 -0.0161 -0.4264
   83POPC   CN2 4266   1.762   4.212   3.929 -0.0665 -0.0763  0.4510
   83POPC   CN3 4267   1.611   4.085   3.781 -0.3167 -0.4452 -0.3780
   83POPC   NTM 4268   1.625   4.166   3.903  0.1641 -0.1933 -0.5991
   83POPC    CA 4269   1.562   4.084   0.019  0.7661 -0.3172 -0.3308
   83POPC    CB 4270   1.639   3.977   0.097  0.5677 -0.3330 -0.1596
   83POPC    OA 4271   1.702   3.884   0.010  0.5833 -0.2323 -0.2562
   83POPC     P 4272   1.808   3.791   0.088  0.1922 -0.4312  0.0412
   83POPC    OB 4273   1.803   3.655   0.030 -0.3640 -0.2171 -0.4203
   83POPC    OC 4274   1.799   3.814   0.234  0.4628 -0.1103  0.0069
   83POPC    OD 4275   1.947   3.862   0.047  0.0442  0.0526  0.3692
   83POPC    CC 4276   1.968   3.836   3.897 -0.0427  0.1843  0.3310
   83POPC    CD 4277   2.003   3.957   3.810  0.1806  0.0515  0.2322
   83POPC    OE 4278   1.938   3.954   3.683  0.8350  0.6056 -0.1229
   83POPC   C1A 4279   1.955   4.055   3.598  0.3370  0.6044 -0.2292
   83POPC    OF 4280   1.961   4.168   3.644 -0.3058  0.2719  0.6953
   83POPC   C1B 4281   1.904   4.018   3.464  0.2052  1.1887 -0.3413
   83POPC   C1C 4282   1.754   4.017   3.434  0.1052  0.6125  0.1551
   83POPC   C1D 4283   1.717   3.948   3.302 -0.2992  0.3074  0.4285
   83POPC   C1E 4284   1.770   3.804   3.296 -0.3113  0.3256 -0.0986
   83POPC   C1F 4285   1.752   3.763   3.150 -0.2270 -0.5055  0.1238
   83POPC   C1G 4286   1.779   3.613   3.136  0.0095 -0.4798  0.3091
   83POPC   C1H 4287   1.718   3.562   3.005  0.4848  0.1662 -0.1731
   83POPC   C1I 4288   1.750   3.414   2.985  0.3198  0.0776  0.2074
   83POPC   C1J 4289   1.728   3.364   2.864  0.2425  0.4565  0.0666
   83POPC   C1K 4290   1.694   3.462   2.750  0.3646  0.3215 -0.0861
   83POPC   C1L 4291   1.599   3.391   2.654  0.4285 -0.2580  0.2715
   83POPC   C1M 4292   1.595   3.472   2.524 -0.0567 -0.0621  0.4048
   83POPC   C1N 4293   1.566   3.379   2.406  0.2616 -0.2369  0.4622
   83POPC   C1O 4294   1.603   3.455   2.279  0.1364 -0.8785  0.0399
   83POPC   C1P 4295   1.588   3.369   2.153  0.7403 -0.6091 -0.2226
   83POPC   C1Q 4296   1.613   3.444   2.022  0.3284  0.4566  0.2990
   83POPC   C1R 4297   1.506   3.551   1.999  0.0821  0.0291 -0.6054
   83POPC    CE 4298   2.153   3.979   3.830  0.1749  0.2254  0.0862
   83POPC    OG 4299   2.232   3.869   3.785  0.2627  0.3519 -0.0699
   83POPC   C2A 4300   2.283   3.878   3.663  0.2062 -0.0925 -0.1290
   83POPC    OH 4301   2.297   3.987   3.607 -0.6484  0.0147 -0.1539
   83POPC   C2B 4302   2.304   3.757   3.581  0.3637 -0.4062  0.3768
   83POPC   C2C 4303   2.181   3.722   3.497  0.5076 -0.3217  0.1303
   83POPC   C2D 4304   2.213   3.604   3.404 -0.9535 -0.3225 -0.3978
   83POPC   C2E 4305   2.288   3.634   3.274 -0.2354 -0.0908  0.0587
   83POPC   C2F 4306   2.209   3.726   3.181  0.4397  0.2397 -0.1952
   83POPC   C2G 4307   2.264   3.707   3.040  0.0827 -0.3240 -0.2603
   83POPC   C2H 4308   2.193   3.803   2.944  0.4022 -0.3026 -0.4753
   83POPC   C2I 4309   2.076   3.737   2.872 -0.3834  0.6008 -0.0480
   83POPC   C2J 4310   2.066   3.792   2.729 -0.2543 -0.1091 -0.3346
   83POPC   C2K 4311   1.930   3.743   2.677 -0.4322 -0.0864  0.1055
   83POPC   C2L 4312   1.901   3.777   2.531 -0.2492 -0.1145  0.0624
   83POPC   C2M 4313   1.995   3.739   2.416 -0.3063 -0.2224  0.0517
   83POPC   C2N 4314   1.942   3.811   2.291 -0.1972 -0.1498  0.0470
   83POPC   C2O 4315   2.007   3.753   2.166 -0.1364  0.3406 -0.1535
   83POPC   C2P 4316   1.917   3.735   2.044  0.1827 -0.2178 -0.3106
   84POPC   CN1 4317   0.526   0.188   0.231  0.3577  0.3678 -0.0890
   84POPC   CN2 4318   0.469   0.420   0.269  0.0404  0.3074  0.4677
   84POPC   CN3 4319   0.439   0.321   0.054 -0.2238 -0.5238  0.1742
   84POPC   NTM 4320   0.525   0.324   0.173 -0.2145  0.4672  0.1541
   84POPC    CA 4321   0.656   0.373   0.129 -0.0523 -0.0752  0.0243
   84POPC    CB 4322   0.757   0.293   0.047  0.2625  0.4695 -0.1198
   84POPC    OA 4323   0.707   0.236   3.914  0.3786  0.1238 -0.0068
   84POPC     P 4324   0.798   0.114   3.861  0.1196 -0.0802  0.0201
   84POPC    OB 4325   0.926   0.123   3.934 -0.0269 -0.2723  0.3029
   84POPC    OC 4326   0.798   0.117   3.713 -0.0399  0.1707  0.0239
   84POPC    OD 4327   0.712   6.287   3.918 -0.1419  0.2816  0.4189
   84POPC    CC 4328   0.602   6.266   3.828  0.1107  0.4151  0.0745
   84POPC    CD 4329   0.519   6.151   3.885  0.2273  0.1082 -0.3766
   84POPC    OE 4330   0.448   6.079   3.783 -0.1317  0.1318 -0.1464
   84POPC   C1A 4331   0.430   5.948   3.794 -0.4868  0.1899 -0.0201
   84POPC    OF 4332   0.458   5.899   3.903 -0.5144  0.7167  0.2227
   84POPC   C1B 4333   0.368   5.874   3.682 -0.3515  0.4743 -0.2831
   84POPC   C1C 4334   0.215   5.865   3.678 -0.3333  0.3166 -0.7683
   84POPC   C1D 4335   0.165   5.808   3.545  0.0759 -0.7089 -0.4933
   84POPC   C1E 4336   0.014   5.793   3.559 -0.0918  0.7399 -0.5501
   84POPC   C1F 4337   6.244   5.728   3.425 -0.0992 -0.0668 -0.1670
   84POPC   C1G 4338   6.102   5.670   3.427 -0.0499 -0.1934 -0.3763
   84POPC   C1H 4339   6.090   5.541   3.509  0.1661  0.4823  0.7395
   84POPC   C1I 4340   5.943   5.522   3.549 -0.0441 -0.2030 -0.3358
   84POPC   C1J 4341   5.902   5.525   3.675  0.0453  0.0188 -0.3115
   84POPC   C1K 4342   6.013   5.543   3.779 -0.1627  0.4013 -0.1535
   84POPC   C1L 4343   5.967   5.604   3.911  0.3045  0.0133  0.1912
   84POPC   C1M 4344   6.087   5.646   0.007  0.2583  0.0731  0.2270
   84POPC   C1N 4345   6.141   5.779   3.941 -0.0699  0.2891  0.4224
   84POPC   C1O 4346   6.039   5.892   3.950  0.0022  0.4017 -0.1320
   84POPC   C1P 4347   6.104   6.010   3.878  0.3157  0.4377  0.2097
   84POPC   C1Q 4348   6.032   6.143   3.900 -0.2962  0.1544 -0.0687
   84POPC   C1R 4349   6.061   6.210   0.046  0.1239 -0.3292  0.0829
   84POPC    CE 4350   0.453   6.208   0.022 -0.1331 -0.6943 -0.1966
   84POPC    OG 4351   0.357   0.011   3.975 -0.1117 -0.5953  0.0255
   84POPC   C2A 4352   0.234   6.260   3.963 -0.3961  0.0510  0.2857
   84POPC    OH 4353   0.190   6.159   0.030  0.3577 -0.2707  0.3064
   84POPC   C2B 4354   0.146   0.047   3.878 -0.5200  0.2418  0.6013
   84POPC   C2C 4355   0.147   6.290   3.735  0.2962  0.1482  0.6339
   84POPC   C2D 4356   0.031   0.051   3.652  0.3740 -0.2276  0.2608
   84POPC   C2E 4357   0.034   6.270   3.520  0.2075  0.1953  0.0063
   84POPC   C2F 4358   6.193   0.011   3.419  0.1775  0.2121  0.0445
   84POPC   C2G 4359   6.054   6.271   3.470  0.1832  0.1891  0.0429
   84POPC   C2H 4360   5.971   6.229   3.348  0.2331  0.1208  0.0321
   84POPC   C2I 4361   5.908   0.052   3.276  0.2776 -0.1056 -0.3891
   84POPC   C2J 4362   5.835   0.010   3.149 -0.2961  0.3695 -0.2240
   84POPC   C2K 4363   5.939   0.026   3.037 -0.1779 -0.3254 -0.2172
   84POPC   C2L 4364   5.923   6.249   2.904 -0.3460 -0.5895 -0.0514
   84POPC   C2M 4365   6.019   0.009   2.801 -0.7288 -0.3455 -0.2754
   84POPC   C2N 4366   5.968   0.132   2.726  0.1923  0.2981  0.1327
   84POPC   C2O 4367   6.068   0.205   2.635  0.6129 -0.2283  0.1717
   84POPC   C2P 4368   6.080   0.139   2.498 -0.1762  0.2825 -0.1496
   85POPC   CN1 4369   0.775   3.978   3.812  0.1069  0.0262  0.3040
   85POPC   CN2 4370   0.602   4.131   3.866  0.2779  0.4508 -0.1093
   85POPC   CN3 4371   0.774   4.192   3.712  0.2746 -0.5275  0.1901
   85POPC   NTM 4372   0.746   4.120   3.837  0.3824  0.0418  0.5432
   85POPC    CA 4373   0.813   4.184   3.951 -0.0014  0.2204  0.6716
   85POPC    CB 4374   0.965   4.197   3.940 -0.0377 -0.3746 -0.6490
   85POPC    OA 4375   1.020   4.281   3.838  0.2563  0.1225 -0.0835
   85POPC     P 4376   1.176   4.309   3.866  0.2945 -0.1892  0.0123
   85POPC    OB 4377   1.206   4.305   0.023  0.0048 -0.0429  0.0753
   85POPC    OC 4378   1.212   4.423   3.780 -0.1605 -0.2689 -0.2863
   85POPC    OD 4379   1.248   4.178   3.805  0.4810 -0.1173  0.0763
   85POPC    CC 4380   1.194   4.167   3.673  0.2949 -0.0768  0.1501
   85POPC    CD 4381   1.230   4.040   3.595 -0.3296 -0.1678  0.0034
   85POPC    OE 4382   1.138   4.025   3.487  0.4551  0.0349 -0.6976
   85POPC   C1A 4383   1.021   3.961   3.491  0.4219  0.1368  0.0565
   85POPC    OF 4384   0.963   3.942   3.598 -0.4395 -0.4954 -0.5109
   85POPC   C1B 4385   0.956   3.946   3.359  1.0984 -0.0164 -0.2636
   85POPC   C1C 4386   0.892   4.081   3.330  0.6201 -0.2624 -0.3630
   85POPC   C1D 4387   0.858   4.088   3.181  0.0735 -0.1183 -0.2361
   85POPC   C1E 4388   0.850   4.237   3.146 -0.6842 -0.0450  0.2340
   85POPC   C1F 4389   0.824   4.266   2.998 -0.1142 -0.2907  0.0823
   85POPC   C1G 4390   0.789   4.410   2.960 -0.0731 -0.2836  0.0712
   85POPC   C1H 4391   0.731   4.428   2.819 -0.4260  0.4366  0.3013
   85POPC   C1I 4392   0.758   4.565   2.758  0.1650  0.2420  0.1167
   85POPC   C1J 4393   0.746   4.575   2.626 -0.0547  0.2632  0.1382
   85POPC   C1K 4394   0.715   4.468   2.522 -0.3660  0.0966  0.3975
   85POPC   C1L 4395   0.623   4.521   2.411  0.0281  0.3050  0.1664
   85POPC   C1M 4396   0.622   4.415   2.301  0.0907  0.3442  0.1282
   85POPC   C1N 4397   0.498   4.430   2.212  0.0680 -0.3176  0.0432
   85POPC   C1O 4398   0.505   4.343   2.086  0.1262 -0.3434  0.0640
   85POPC   C1P 4399   0.360   4.330   2.038  0.1976 -0.1622 -0.2047
   85POPC   C1Q 4400   0.341   4.252   1.908 -0.2063 -0.7991  0.2321
   85POPC   C1R 4401   0.202   4.275   1.846 -0.0795  0.0519  0.2548
   85POPC    CE 4402   1.245   3.925   3.695  0.4045  0.2451  0.3798
   85POPC    OG 4403   1.267   3.796   3.636 -0.2147  0.2931  0.0244
   85POPC   C2A 4404   1.376   3.783   3.561 -0.2743 -0.0462 -0.0015
   85POPC    OH 4405   1.482   3.834   3.597 -0.3061  0.0612 -0.0601
   85POPC   C2B 4406   1.354   3.685   3.452 -0.1985  0.2283 -0.2636
   85POPC   C2C 4407   1.290   3.738   3.323 -0.0151 -0.1236 -0.4999
   85POPC   C2D 4408   1.343   3.858   3.245  0.1994  0.2180  0.1598
   85POPC   C2E 4409   1.297   3.877   3.100 -0.1825  0.4922  0.3158
   85POPC   C2F 4410   1.374   3.996   3.043  0.5314  0.0225  0.2900
   85POPC   C2G 4411   1.369   4.001   2.890 -0.6140 -0.2579  0.3085
   85POPC   C2H 4412   1.439   3.880   2.829  0.0632  0.1868  0.1912
   85POPC   C2I 4413   1.467   3.901   2.680 -0.4195  0.0516  0.0814
   85POPC   C2J 4414   1.363   3.831   2.592  0.1020 -0.3644 -0.2062
   85POPC   C2K 4415   1.414   3.851   2.449  0.9109  0.2452  0.1635
   85POPC   C2L 4416   1.313   3.859   2.335  0.2585  0.3495  0.7430
   85POPC   C2M 4417   1.232   3.730   2.314 -0.1887  0.7239  0.1369
   85POPC   C2N 4418   1.182   3.722   2.170 -0.4004 -0.1967  0.2588
   85POPC   C2O 4419   1.080   3.608   2.159 -0.4113 -0.1927  0.3230
   85POPC   C2P 4420   1.066   3.562   2.014 -0.0650 -0.2011  0.2899
   86POPC   CN1 4421   5.704   5.053   3.972 -0.0309  1.1768  0.4089
   86POPC   CN2 4422   5.904   5.173   3.913  0.6098 -0.5429 -0.1335
   86POPC   CN3 4423   5.811   5.015   3.756 -0.1650 -0.1676 -0.1435
   86POPC   NTM 4424   5.831   5.046   3.898 -0.4063  0.0315 -0.1506
   86POPC    CA 4425   5.901   4.932   3.960 -0.3522  0.1256 -0.0393
   86POPC    CB 4426   6.047   4.892   3.938 -0.4706 -0.3713  0.0700
   86POPC    OA 4427   6.143   4.986   3.987 -0.5760 -0.3634  0.2602
   86POPC     P 4428   0.017   4.909   0.003 -0.3210  0.0649 -0.2866
   86POPC    OB 4429   6.253   4.765   3.983 -0.3537  0.0158  0.5967
   86POPC    OC 4430   0.098   4.971   0.111 -0.4425 -0.1439 -0.0752
   86POPC    OD 4431   0.083   4.934   3.847 -0.3288  0.4491 -0.2252
   86POPC    CC 4432   0.122   5.067   3.813  0.0043  0.2277 -0.7145
   86POPC    CD 4433   0.016   5.156   3.747 -0.1111  0.4957 -0.1746
   86POPC    OE 4434   6.231   5.087   3.633 -0.3218 -0.6472  0.5985
   86POPC   C1A 4435   6.120   5.134   3.577 -0.2738 -0.4638  0.6532
   86POPC    OF 4436   6.037   5.191   3.647 -0.3444  0.7443 -0.3940
   86POPC   C1B 4437   6.108   5.096   3.434 -0.4660 -0.2373  0.6085
   86POPC   C1C 4438   6.018   5.195   3.360  0.6080  0.3872  0.1236
   86POPC   C1D 4439   5.994   5.158   3.214 -0.0538  0.2119  0.2751
   86POPC   C1E 4440   5.886   5.255   3.166 -0.0933  0.0208 -0.0288
   86POPC   C1F 4441   5.856   5.237   3.017  0.3488  0.6442 -0.1969
   86POPC   C1G 4442   5.765   5.354   2.977 -0.4954  0.1065  0.1296
   86POPC   C1H 4443   5.735   5.365   2.828  0.2424  0.2841 -0.0086
   86POPC   C1I 4444   5.611   5.454   2.812  0.3348  0.4197  0.0348
   86POPC   C1J 4445   5.573   5.504   2.695 -0.3455  0.3607  0.2307
   86POPC   C1K 4446   5.651   5.469   2.569  0.2905  0.0587  0.7044
   86POPC   C1L 4447   5.657   5.593   2.480 -0.1936 -0.3269  0.1192
   86POPC   C1M 4448   5.536   5.620   2.390 -0.1602 -0.0938  0.1427
   86POPC   C1N 4449   5.553   5.538   2.262 -0.1686 -0.4579  0.3733
   86POPC   C1O 4450   5.425   5.535   2.179 -0.2174 -0.3679  0.4445
   86POPC   C1P 4451   5.456   5.463   2.047 -0.7118  0.0660  0.0825
   86POPC   C1Q 4452   5.543   5.552   1.958 -0.3960 -0.3051  0.0159
   86POPC   C1R 4453   5.555   5.491   1.818 -0.1275 -0.0834 -0.0585
   86POPC    CE 4454   0.082   5.292   3.722  0.0008  0.4891  0.0832
   86POPC    OG 4455   0.193   5.300   3.632 -0.3615 -0.6266 -0.4779
   86POPC   C2A 4456   0.276   5.404   3.632 -0.1240 -0.8076  0.1263
   86POPC    OH 4457   0.269   5.480   3.728 -0.9011  0.3929 -0.8515
   86POPC   C2B 4458   0.378   5.419   3.525 -0.6388 -0.6576 -0.3508
   86POPC   C2C 4459   0.316   5.496   3.408 -0.0874  0.1353 -0.1329
   86POPC   C2D 4460   0.237   5.405   3.314  0.5270  0.0942 -0.6116
   86POPC   C2E 4461   0.144   5.484   3.221  0.0208 -0.1138 -0.2875
   86POPC   C2F 4462   0.077   5.390   3.120  0.7159 -0.4218 -0.4723
   86POPC   C2G 4463   6.255   5.459   3.016  0.2675 -0.2014  0.0508
   86POPC   C2H 4464   6.202   5.353   2.919  0.3191  0.2079 -0.4294
   86POPC   C2I 4465   6.118   5.423   2.812  0.5708  0.6155 -0.3629
   86POPC   C2J 4466   6.095   5.329   2.694  0.1609  0.4683 -0.1687
   86POPC   C2K 4467   6.031   5.393   2.570  0.8285  0.9750 -0.2565
   86POPC   C2L 4468   6.100   5.330   2.449 -0.4877 -0.0424 -0.5054
   86POPC   C2M 4469   6.089   5.420   2.325  0.3334  0.3000 -0.3366
   86POPC   C2N 4470   5.970   5.376   2.240  0.2226  0.0312 -0.0460
   86POPC   C2O 4471   5.963   5.454   2.109 -0.2796 -0.0701 -0.0828
   86POPC   C2P 4472   6.078   5.409   2.019 -0.2671  0.0344 -0.1194
   87POPC   CN1 4473   1.262   2.438   3.727 -0.1424 -0.2997  0.2803
   87POPC   CN2 4474   1.268   2.511   3.954 -0.0954 -0.1739  0.1339
   87POPC   CN3 4475   1.452   2.545   3.795 -0.3104  0.0200 -0.7758
   87POPC   NTM 4476   1.348   2.454   3.845  0.0402  0.0839  0.0978
   87POPC    CA 4477   1.396   2.321   3.886 -0.2927 -0.2678 -0.6269
   87POPC    CB 4478   1.474   2.225   3.796  0.0335 -0.3698 -0.2421
   87POPC    OA 4479   1.604   2.262   3.749  0.0257 -0.0091  0.0249
   87POPC     P 4480   1.696   2.133   3.725  0.0070  0.0113 -0.1537
   87POPC    OB 4481   1.674   2.035   3.833 -0.5949  0.4030  0.0804
   87POPC    OC 4482   1.832   2.183   3.694  0.2679 -0.7399 -0.2403
   87POPC    OD 4483   1.617   2.085   3.593  0.3202 -0.3817 -0.2006
   87POPC    CC 4484   1.694   2.131   3.482 -0.0392  0.2494 -0.1919
   87POPC    CD 4485   1.606   2.140   3.358 -0.1631  0.1987 -0.1075
   87POPC    OE 4486   1.675   2.148   3.233 -0.0553  0.3221 -0.0396
   87POPC   C1A 4487   1.645   2.061   3.137  0.1558  0.1637  0.0394
   87POPC    OF 4488   1.531   2.015   3.132  0.0376  0.4861 -0.2317
   87POPC   C1B 4489   1.741   2.061   3.024  0.0203 -0.3144 -0.0815
   87POPC   C1C 4490   1.672   2.135   2.909 -0.2686 -0.3637  0.0601
   87POPC   C1D 4491   1.726   2.101   2.770  0.0977  0.5756 -0.0338
   87POPC   C1E 4492   1.646   2.164   2.656  0.0196  0.3074 -0.1289
   87POPC   C1F 4493   1.730   2.105   2.542 -0.4548 -0.5082 -0.0630
   87POPC   C1G 4494   1.856   2.188   2.513 -0.4368 -0.5010  0.0353
   87POPC   C1H 4495   1.938   2.113   2.408  0.0343 -0.0852  0.1039
   87POPC   C1I 4496   2.076   2.170   2.374 -0.0043 -0.3420 -0.4927
   87POPC   C1J 4497   2.127   2.169   2.251  0.0236  0.7031 -0.5030
   87POPC   C1K 4498   2.038   2.127   2.134 -0.7947  0.3338  0.2376
   87POPC   C1L 4499   2.041   1.982   2.084 -0.0523  0.4575 -0.0969
   87POPC   C1M 4500   1.988   1.961   1.942 -0.0896  0.2219 -0.0487
   87POPC   C1N 4501   2.083   2.035   1.848  0.0421  0.5176  0.3176
   87POPC   C1O 4502   2.029   2.024   1.706 -0.2494  0.4555  0.4317
   87POPC   C1P 4503   2.025   1.884   1.644  0.4434  0.3953  0.5094
   87POPC   C1Q 4504   2.159   1.836   1.587 -0.0986  0.0119 -0.4810
   87POPC   C1R 4505   2.166   1.684   1.574  0.8316  0.0175 -0.1267
   87POPC    CE 4506   1.512   2.256   3.391 -0.1837  0.0300  0.4264
   87POPC    OG 4507   1.581   2.380   3.375  0.2645 -0.2558  0.1156
   87POPC   C2A 4508   1.525   2.499   3.395 -0.0989 -0.4119  0.0320
   87POPC    OH 4509   1.421   2.513   3.460  0.4537  1.1897  0.6261
   87POPC   C2B 4510   1.598   2.609   3.330 -0.4558  0.2566  0.7350
   87POPC   C2C 4511   1.505   2.677   3.230  0.2069  0.0248 -0.0533
   87POPC   C2D 4512   1.491   2.607   3.095  0.0881  0.3598 -0.2182
   87POPC   C2E 4513   1.450   2.715   2.995 -0.0054 -0.0702 -0.6509
   87POPC   C2F 4514   1.430   2.664   2.852  0.2821 -0.7972 -0.4348
   87POPC   C2G 4515   1.563   2.614   2.795  0.4063 -0.9106 -0.0489
   87POPC   C2H 4516   1.527   2.563   2.655 -0.1619  0.4754 -0.4228
   87POPC   C2I 4517   1.651   2.556   2.566  0.4404  0.2052  0.4231
   87POPC   C2J 4518   1.614   2.513   2.424  0.1583  0.2374  0.4866
   87POPC   C2K 4519   1.744   2.508   2.344 -0.2370 -0.0663 -0.1452
   87POPC   C2L 4520   1.701   2.472   2.201 -0.2328  0.4269 -0.2754
   87POPC   C2M 4521   1.645   2.331   2.180  0.1347  0.1825  0.3390
   87POPC   C2N 4522   1.608   2.300   2.035  0.6883  0.3856  0.1552
   87POPC   C2O 4523   1.578   2.151   2.018  0.6063  0.3962  0.2048
   87POPC   C2P 4524   1.581   2.113   1.870  0.2747 -0.4671  0.4170
   88POPC   CN1 4525   5.831   4.052   3.682  0.1133 -0.2356 -0.1892
   88POPC   CN2 4526   5.970   4.171   3.539 -0.9747  0.2859  0.7226
   88POPC   CN3 4527   6.068   3.987   3.659  0.0707  0.0928  0.2141
   88POPC   NTM 4528   5.971   4.096   3.666  0.1076  0.0998  0.6212
   88POPC    CA 4529   6.007   4.174   3.785  0.9739  0.6176  0.0311
   88POPC    CB 4530   5.936   4.306   3.816  0.3570  0.3884 -0.3786
   88POPC    OA 4531   5.957   4.408   3.718 -0.0060  0.0270 -0.8313
   88POPC     P 4532   5.850   4.527   3.736  0.1090  0.0208 -0.0972
   88POPC    OB 4533   5.887   4.587   3.866 -0.5104 -0.1782  0.1736
   88POPC    OC 4534   5.717   4.463   3.729 -0.2442  0.6175  0.8715
   88POPC    OD 4535   5.910   4.606   3.609 -0.0524  0.1812 -0.0740
   88POPC    CC 4536   5.855   4.544   3.492  0.2561 -0.4269  0.0970
   88POPC    CD 4537   5.900   4.588   3.353  0.0286  0.3659  0.2684
   88POPC    OE 4538   6.031   4.548   3.313 -0.0643  0.0688  0.2559
   88POPC   C1A 4539   6.038   4.421   3.274 -0.2466 -0.0035  0.4608
   88POPC    OF 4540   5.944   4.343   3.285  0.1396 -0.4949  0.2866
   88POPC   C1B 4541   6.170   4.374   3.225 -0.4099  0.1512 -0.1360
   88POPC   C1C 4542   6.180   4.372   3.073 -0.1865 -0.0804 -0.1195
   88POPC   C1D 4543   0.030   4.287   3.023 -0.0004  0.0648  0.0669
   88POPC   C1E 4544   0.027   4.279   2.870 -0.0892  0.2610  0.0578
   88POPC   C1F 4545   0.113   4.160   2.830 -0.0042  0.6434 -0.9126
   88POPC   C1G 4546   0.042   4.026   2.849  0.4637  0.5089 -0.0557
   88POPC   C1H 4547   6.223   4.014   2.723  0.5854 -0.5251 -0.0507
   88POPC   C1I 4548   6.134   3.889   2.727  0.4283 -0.4297 -0.5235
   88POPC   C1J 4549   6.078   3.849   2.613 -0.2261 -0.0556 -0.3351
   88POPC   C1K 4550   6.088   3.919   2.477  0.3286 -0.4971 -0.5239
   88POPC   C1L 4551   5.954   3.940   2.408  0.1406 -1.1210 -0.3617
   88POPC   C1M 4552   5.965   3.996   2.265 -0.1234  0.0786  0.0737
   88POPC   C1N 4553   5.830   4.006   2.194 -0.1792  0.0008  0.1685
   88POPC   C1O 4554   5.785   3.894   2.101 -0.1010 -0.2322  0.4107
   88POPC   C1P 4555   5.687   3.938   1.992 -0.0297  0.4099  0.6013
   88POPC   C1Q 4556   5.594   3.824   1.949  0.5447  0.1135  0.1393
   88POPC   C1R 4557   5.678   3.712   1.887  0.2406  0.1586 -0.3633
   88POPC    CE 4558   5.876   4.739   3.354  0.1373  0.3941 -0.4776
   88POPC    OG 4559   5.736   4.764   3.369  0.0695 -0.0999 -0.2733
   88POPC   C2A 4560   5.705   4.885   3.414  0.1311 -0.2846  0.2705
   88POPC    OH 4561   5.787   4.958   3.470 -0.2833  0.1695  0.2882
   88POPC   C2B 4562   5.566   4.923   3.382  0.2689  0.0996  0.1235
   88POPC   C2C 4563   5.542   4.917   3.231 -0.1394  0.0356  0.1905
   88POPC   C2D 4564   5.405   4.970   3.187 -0.0403  0.4705  0.3963
   88POPC   C2E 4565   5.418   4.977   3.035 -0.4180  0.2834  0.3551
   88POPC   C2F 4566   5.307   5.060   2.971 -0.2465  0.1459 -0.1284
   88POPC   C2G 4567   5.340   5.079   2.823 -0.0694 -0.5226 -0.1750
   88POPC   C2H 4568   5.239   5.169   2.751  0.6696  0.1177 -0.4291
   88POPC   C2I 4569   5.233   5.148   2.600  0.1664  0.0195 -0.3975
   88POPC   C2J 4570   5.144   5.252   2.531 -0.1238 -0.0159 -0.0771
   88POPC   C2K 4571   5.188   5.398   2.541 -0.1646  0.0129 -0.3075
   88POPC   C2L 4572   5.090   5.475   2.452 -0.0572  0.0563 -0.3887
   88POPC   C2M 4573   5.147   5.616   2.437  0.2564  0.0400  0.5629
   88POPC   C2N 4574   5.053   5.714   2.367 -0.1394 -0.3130  0.5967
   88POPC   C2O 4575   5.119   5.850   2.346 -0.3865 -0.3427 -0.4114
   88POPC   C2P 4576   5.116   5.933   2.475 -0.3341 -0.9333 -0.0280
   89POPC   CN1 4577   1.594   1.516   3.845  0.3292  0.2107 -0.5593
   89POPC   CN2 4578   1.518   1.747   3.839  0.4372 -0.0089  0.4668
   89POPC   CN3 4579   1.667   1.675   0.018 -0.1164  0.4369 -0.1952
   89POPC   NTM 4580   1.553   1.633   3.924 -0.0693 -0.4020  0.1567
   89POPC    CA 4581   1.436   1.609   0.022 -0.0076 -0.4252  0.2344
   89POPC    CB 4582   1.307   1.548   3.955  0.2699 -0.5417 -0.2933
   89POPC    OA 4583   1.244   1.615   3.846  0.2848 -0.1408 -0.0585
   89POPC     P 4584   1.204   1.514   3.727  0.0072 -0.0261 -0.0631
   89POPC    OB 4585   1.136   1.585   3.616  0.1222 -0.4033 -0.3776
   89POPC    OC 4586   1.160   1.387   3.788 -0.5479  0.0289 -0.3410
   89POPC    OD 4587   1.351   1.498   3.664 -0.0091  0.1286 -0.1426
   89POPC    CC 4588   1.329   1.425   3.543  0.4739 -0.2614 -0.0024
   89POPC    CD 4589   1.422   1.320   3.482  0.2027 -0.4775 -0.0434
   89POPC    OE 4590   1.389   1.258   3.357  0.2841 -0.2645 -0.1701
   89POPC   C1A 4591   1.382   1.333   3.247  0.1515 -0.3434 -0.2147
   89POPC    OF 4592   1.420   1.450   3.246  0.5784 -0.4786 -0.1295
   89POPC   C1B 4593   1.358   1.248   3.128 -0.0101 -0.0930 -0.3619
   89POPC   C1C 4594   1.282   1.315   3.014 -0.0372  0.0177 -0.2785
   89POPC   C1D 4595   1.248   1.220   2.899  0.3517 -0.1418 -0.2631
   89POPC   C1E 4596   1.169   1.283   2.783  0.8083  0.1971 -0.3930
   89POPC   C1F 4597   1.139   1.182   2.672  0.4729 -0.2230  0.0771
   89POPC   C1G 4598   1.076   1.245   2.548  0.3817 -0.1833  0.1431
   89POPC   C1H 4599   1.023   1.143   2.447 -0.1009  0.0612  0.1484
   89POPC   C1I 4600   0.975   1.213   2.319 -0.2525  0.5110  0.4515
   89POPC   C1J 4601   0.904   1.161   2.220  0.1026 -0.5838  0.7583
   89POPC   C1K 4602   0.868   1.013   2.213  0.3529 -0.6318  0.4868
   89POPC   C1L 4603   0.717   1.002   2.191  0.3846 -0.9467  0.4167
   89POPC   C1M 4604   0.683   1.034   2.045 -0.0669 -0.7488  0.5647
   89POPC   C1N 4605   0.533   1.033   2.015 -0.0376  0.3776  0.3519
   89POPC   C1O 4606   0.493   1.116   1.893  0.6570  0.6685  0.3196
   89POPC   C1P 4607   0.346   1.157   1.899  0.4672  0.1138 -0.4033
   89POPC   C1Q 4608   0.295   1.229   1.774 -0.0381  0.0694 -0.2272
   89POPC   C1R 4609   0.314   1.144   1.648 -0.0223  0.2814 -0.3685
   89POPC    CE 4610   1.466   1.232   3.599 -0.3682 -0.3471  0.2780
   89POPC    OG 4611   1.369   1.146   3.659 -0.3169 -0.6242 -0.0303
   89POPC   C2A 4612   1.361   1.156   3.792  0.1944  0.2530 -0.0556
   89POPC    OH 4613   1.446   1.212   3.861  0.2356 -0.1872  0.2557
   89POPC   C2B 4614   1.234   1.111   3.853  0.2847 -0.4670 -0.3784
   89POPC   C2C 4615   1.205   0.962   3.836 -0.1124 -0.4121 -0.1815
   89POPC   C2D 4616   1.133   0.928   3.705 -0.1899  0.1319 -0.2812
   89POPC   C2E 4617   1.010   1.017   3.688  0.0132  0.5686  0.4626
   89POPC   C2F 4618   0.966   1.016   3.541 -0.1446 -0.1465  0.5102
   89POPC   C2G 4619   1.074   1.067   3.446 -0.5849 -0.2893 -0.0684
   89POPC   C2H 4620   1.034   1.067   3.298 -0.4750 -0.3953 -0.0983
   89POPC   C2I 4621   1.041   0.929   3.232 -0.6926 -0.5536  0.2108
   89POPC   C2J 4622   0.975   0.953   3.096  0.7776 -0.5661 -0.5154
   89POPC   C2K 4623   0.954   0.833   3.003 -0.6093 -0.2864 -0.5732
   89POPC   C2L 4624   0.914   0.883   2.864 -0.1533 -0.0357 -0.6135
   89POPC   C2M 4625   0.950   0.780   2.757  0.5366  0.0376 -0.4609
   89POPC   C2N 4626   0.867   0.799   2.630 -0.0797  0.2257 -0.0347
   89POPC   C2O 4627   0.866   0.675   2.541  0.1722  0.4473 -0.3477
   89POPC   C2P 4628   0.796   0.711   2.410 -0.5702  0.4789  0.0493
   90POPC   CN1 4629   3.065   3.606   3.677 -0.1790  0.0682  0.5322
   90POPC   CN2 4630   3.273   3.565   3.785  0.1032  0.1109  0.0908
   90POPC   CN3 4631   3.221   3.455   3.585 -0.1302 -0.5966  0.4668
   90POPC   NTM 4632   3.163   3.502   3.712 -0.0156  0.1288  0.2537
   90POPC    CA 4633   3.093   3.398   3.788 -0.0705  0.1456  0.2256
   90POPC    CB 4634   3.177   3.301   3.871  0.1373  0.0739 -0.0702
   90POPC    OA 4635   3.289   3.227   3.819 -0.1650 -0.2797 -0.2210
   90POPC     P 4636   3.385   3.176   3.938 -0.0750 -0.0288 -0.1858
   90POPC    OB 4637   3.461   3.056   3.898 -0.0684  0.0160 -0.3086
   90POPC    OC 4638   3.335   3.201   0.086  0.0398 -0.3184 -0.0906
   90POPC    OD 4639   3.476   3.306   3.909 -0.1360  0.1755  0.5209
   90POPC    CC 4640   3.594   3.293   3.829 -0.2810 -0.1706  0.3601
   90POPC    CD 4641   3.633   3.431   3.775 -0.4427 -0.3767 -0.2937
   90POPC    OE 4642   3.712   3.438   3.656  0.2702 -0.0299  0.1934
   90POPC   C1A 4643   3.653   3.437   3.537  0.5821 -0.4127  0.0438
   90POPC    OF 4644   3.532   3.418   3.535  0.3960  0.7097  0.1416
   90POPC   C1B 4645   3.754   3.434   3.429 -0.0688 -0.3260 -0.5747
   90POPC   C1C 4646   3.699   3.510   3.308 -0.1104  0.2515 -0.2013
   90POPC   C1D 4647   3.804   3.492   3.198 -0.2313  0.1663 -0.3046
   90POPC   C1E 4648   3.743   3.507   3.059 -0.3833  0.0880 -0.2473
   90POPC   C1F 4649   3.849   3.493   2.949  0.2084  0.0409  0.3236
   90POPC   C1G 4650   3.949   3.608   2.958  0.2803 -0.0209  0.3126
   90POPC   C1H 4651   4.042   3.622   2.837  0.1257  0.2666  0.2253
   90POPC   C1I 4652   4.124   3.749   2.860  0.0367  0.3461  0.1067
   90POPC   C1J 4653   4.250   3.759   2.819  0.0099 -0.3693 -0.1630
   90POPC   C1K 4654   4.313   3.638   2.750  0.4426  0.2015 -0.7933
   90POPC   C1L 4655   4.462   3.621   2.778  0.2656 -0.2325 -0.0661
   90POPC   C1M 4656   4.521   3.488   2.731  0.0914 -0.1379 -0.5564
   90POPC   C1N 4657   4.672   3.501   2.757 -0.0991 -0.2067  0.6380
   90POPC   C1O 4658   4.744   3.418   2.651 -0.4510 -0.2730  0.4468
   90POPC   C1P 4659   4.712   3.268   2.659  0.3339 -0.4453  0.5194
   90POPC   C1Q 4660   4.771   3.208   2.531 -0.1962  0.3010 -0.0918
   90POPC   C1R 4661   4.920   3.176   2.550 -0.2018  0.0958 -0.3923
   90POPC    CE 4662   3.682   3.508   3.898 -0.0604 -0.1704 -0.5736
   90POPC    OG 4663   3.702   3.646   3.870  0.1376  0.0547  0.6405
   90POPC   C2A 4664   3.599   3.728   3.886  0.2822  0.3158  0.2546
   90POPC    OH 4665   3.507   3.694   3.961  0.1889  0.5691  0.2582
   90POPC   C2B 4666   3.607   3.864   3.828 -0.2492  0.4508  0.4916
   90POPC   C2C 4667   3.595   3.852   3.676 -0.2396  0.2298  0.5077
   90POPC   C2D 4668   3.662   3.971   3.606 -0.0442 -0.0026  0.2971
   90POPC   C2E 4669   3.599   3.989   3.467 -0.0618  0.2445  0.3372
   90POPC   C2F 4670   3.666   4.081   3.364  0.2085 -0.1387  0.1673
   90POPC   C2G 4671   3.598   4.076   3.227  0.5452  0.0462 -0.0066
   90POPC   C2H 4672   3.609   3.943   3.152 -0.3901 -0.3537  0.5485
   90POPC   C2I 4673   3.559   3.962   3.008 -0.1261  0.1494  0.5202
   90POPC   C2J 4674   3.613   3.846   2.923 -0.5886  0.4861 -0.2435
   90POPC   C2K 4675   3.552   3.858   2.784 -0.3419  0.8544 -0.3233
   90POPC   C2L 4676   3.652   3.837   2.670 -0.2958 -0.1125 -0.1090
   90POPC   C2M 4677   3.644   3.694   2.615  0.3616 -0.2803  0.2262
   90POPC   C2N 4678   3.751   3.673   2.508 -0.0446 -0.2793 -0.1828
   90POPC   C2O 4679   3.783   3.525   2.483  0.3815 -0.2429  0.1483
   90POPC   C2P 4680   3.658   3.448   2.444  0.4572 -0.3016  0.0233
   91POPC   CN1 4681   2.284   4.294   3.661  0.7719  0.2373  0.1944
   91POPC   CN2 4682   2.165   4.486   3.575 -0.0784 -0.0095 -0.5773
   91POPC   CN3 4683   2.377   4.508   3.655 -0.3362  0.1306  0.2810
   91POPC   NTM 4684   2.252   4.436   3.683 -0.4148  0.0529 -0.2766
   91POPC    CA 4685   2.181   4.467   3.808 -0.2598  0.3690 -0.2663
   91POPC    CB 4686   2.220   4.398   3.939 -0.2520  0.7006 -0.0936
   91POPC    OA 4687   2.359   4.406   3.972 -0.2238  0.1143 -0.0580
   91POPC     P 4688   2.399   4.306   0.103 -0.0648 -0.0608 -0.2565
   91POPC    OB 4689   2.325   4.184   0.064 -0.7457  0.2090  0.1672
   91POPC    OC 4690   2.369   4.375   0.231 -0.4613 -0.2077 -0.2707
   91POPC    OD 4691   2.557   4.291   0.079 -0.0192 -0.7240  0.4090
   91POPC    CC 4692   2.589   4.175   0.002  0.1954 -0.3605 -0.0582
   91POPC    CD 4693   2.628   4.200   3.845 -0.2247  0.0004 -0.1101
   91POPC    OE 4694   2.613   4.093   3.751  0.3442  0.1135 -0.3337
   91POPC   C1A 4695   2.701   3.997   3.725  0.0768 -0.2611  0.1433
   91POPC    OF 4696   2.787   3.968   3.808 -0.3840  0.1121  0.7688
   91POPC   C1B 4697   2.661   3.910   3.612 -0.6628  0.5019 -0.1950
   91POPC   C1C 4698   2.703   3.973   3.479 -0.0524  0.2320 -0.1343
   91POPC   C1D 4699   2.579   3.981   3.390 -0.5629 -0.5557  0.4968
   91POPC   C1E 4700   2.514   4.119   3.409  0.0992 -0.1310 -0.2643
   91POPC   C1F 4701   2.396   4.128   3.313  0.2858 -0.0373 -0.4842
   91POPC   C1G 4702   2.357   4.275   3.305 -0.5299 -0.2125  0.0929
   91POPC   C1H 4703   2.222   4.297   3.236 -0.4799  0.5815  0.2352
   91POPC   C1I 4704   2.223   4.445   3.197  0.1537  0.5870  0.2535
   91POPC   C1J 4705   2.193   4.481   3.072  0.3187 -0.0271  0.0308
   91POPC   C1K 4706   2.161   4.378   2.964 -0.5178  0.3030 -0.0461
   91POPC   C1L 4707   2.060   4.428   2.861 -0.2545  0.5020 -0.2077
   91POPC   C1M 4708   2.096   4.561   2.794  0.4272  0.3091 -0.2358
   91POPC   C1N 4709   1.971   4.624   2.732 -0.0202 -0.0975  0.2397
   91POPC   C1O 4710   1.914   4.548   2.612  0.7227  0.2618 -0.3467
   91POPC   C1P 4711   1.793   4.619   2.553  0.4778  0.1690  0.0409
   91POPC   C1Q 4712   1.670   4.632   2.643  0.2706 -0.3478 -0.1653
   91POPC   C1R 4713   1.571   4.729   2.579 -0.3507 -0.4067  0.6867
   91POPC    CE 4714   2.766   4.265   3.849 -0.0380 -0.4138  0.3164
   91POPC    OG 4715   2.802   4.320   3.722 -0.3270 -0.7002  0.1106
   91POPC   C2A 4716   2.777   4.446   3.688  0.2574 -0.4975  0.4117
   91POPC    OH 4717   2.706   4.510   3.765  0.0689 -0.2393  0.0298
   91POPC   C2B 4718   2.829   4.477   3.552 -0.5984 -0.1994  0.1446
   91POPC   C2C 4719   2.781   4.385   3.439 -0.0992 -0.3286  0.0375
   91POPC   C2D 4720   2.834   4.403   3.297 -0.1490  0.5092  0.1157
   91POPC   C2E 4721   2.773   4.303   3.198 -0.4364  0.6110  0.1896
   91POPC   C2F 4722   2.825   4.339   3.059 -0.5286  0.5617  0.1428
   91POPC   C2G 4723   2.742   4.276   2.946 -0.2489 -0.0822  0.2938
   91POPC   C2H 4724   2.820   4.306   2.818 -0.1338 -0.3895  0.2912
   91POPC   C2I 4725   2.782   4.220   2.698 -0.1754  0.1166 -0.0589
   91POPC   C2J 4726   2.879   4.251   2.584 -0.0191 -0.2371 -0.0244
   91POPC   C2K 4727   2.830   4.169   2.464  0.1168  0.0683 -0.2918
   91POPC   C2L 4728   2.919   4.190   2.342  0.6137 -0.3324 -0.0033
   91POPC   C2M 4729   2.858   4.111   2.226 -0.0744 -0.3439  0.3635
   91POPC   C2N 4730   2.843   3.959   2.238 -0.3362 -0.3460  0.0461
   91POPC   C2O 4731   2.788   3.903   2.107  0.0071 -0.0978 -0.2061
   91POPC   C2P 4732   2.799   3.750   2.107 -0.1211 -0.1088  0.2656
   92POPC   CN1 4733   3.088   3.855   0.262 -0.1108  0.1787  0.4145
   92POPC   CN2 4734   3.251   3.757   0.113  0.0346 -0.2883 -0.0406
   92POPC   CN3 4735   3.243   3.988   0.158 -0.7911 -0.2999  0.0845
   92POPC   NTM 4736   3.159   3.870   0.134 -0.3489 -0.6396  0.1784
   92POPC    CA 4737   3.061   3.872   0.025  0.1273 -0.6451 -0.2514
   92POPC    CB 4738   3.086   3.980   3.907 -0.2682 -0.5859 -0.2860
   92POPC    OA 4739   3.216   3.981   3.849 -0.2785 -0.4101 -0.3065
   92POPC     P 4740   3.232   4.111   3.755  0.0549 -0.0534  0.2364
   92POPC    OB 4741   3.377   4.104   3.725  0.1504  0.2922  0.6086
   92POPC    OC 4742   3.182   4.237   3.814 -0.2777 -0.0891  0.0333
   92POPC    OD 4743   3.143   4.050   3.636 -0.0923  0.2255  0.2026
   92POPC    CC 4744   3.226   3.990   3.536 -0.4039 -0.1914  0.1888
   92POPC    CD 4745   3.152   3.919   3.423 -0.2597  0.2804 -0.2070
   92POPC    OE 4746   3.241   3.847   3.337 -0.6771  0.4731 -0.8055
   92POPC   C1A 4747   3.210   3.719   3.316  0.4213 -0.0067  0.3866
   92POPC    OF 4748   3.126   3.661   3.385  0.1512  0.0833  0.1331
   92POPC   C1B 4749   3.300   3.647   3.224 -0.1453  0.2681 -0.3916
   92POPC   C1C 4750   3.234   3.623   3.088 -0.3827 -0.8722 -0.0865
   92POPC   C1D 4751   3.293   3.525   2.986  0.1779 -0.8992  0.2575
   92POPC   C1E 4752   3.206   3.527   2.860  0.4925 -0.0714  0.0464
   92POPC   C1F 4753   3.208   3.400   2.774  0.0055  0.1029 -0.2270
   92POPC   C1G 4754   3.121   3.427   2.651 -0.6351 -0.1145  0.1720
   92POPC   C1H 4755   3.126   3.320   2.541  0.0502  0.2332 -0.1415
   92POPC   C1I 4756   3.045   3.367   2.420 -0.4002  0.0121  0.0706
   92POPC   C1J 4757   2.971   3.271   2.364 -0.4926  0.0614  0.1081
   92POPC   C1K 4758   2.951   3.128   2.413 -0.3068  0.0813  0.2472
   92POPC   C1L 4759   2.935   3.038   2.289 -0.4102  0.3257  0.0825
   92POPC   C1M 4760   2.913   2.897   2.345 -0.1598  0.0101 -0.6089
   92POPC   C1N 4761   2.995   2.814   2.247  0.0386 -0.1110 -0.3402
   92POPC   C1O 4762   2.956   2.667   2.254 -0.1529 -0.0246  0.4232
   92POPC   C1P 4763   3.013   2.608   2.125  0.3346  0.0390  0.6056
   92POPC   C1Q 4764   2.967   2.462   2.111  0.2467  0.1284 -0.0744
   92POPC   C1R 4765   3.022   2.382   1.993  0.4377  0.4626 -0.2133
   92POPC    CE 4766   3.057   4.024   3.366 -0.4234  0.4052  0.2986
   92POPC    OG 4767   3.058   4.049   3.226  0.1898 -0.0143  0.2281
   92POPC   C2A 4768   3.154   4.126   3.173 -0.0052  0.1747  0.1483
   92POPC    OH 4769   3.232   4.188   3.245  0.2214 -0.0157  0.0658
   92POPC   C2B 4770   3.154   4.130   3.025  0.1068  0.0945  0.1460
   92POPC   C2C 4771   3.133   3.995   2.956 -0.3534  0.3427 -0.2051
   92POPC   C2D 4772   3.124   4.006   2.803 -0.1489  0.1176 -0.2337
   92POPC   C2E 4773   3.176   3.881   2.732 -0.2413 -0.2364  0.3117
   92POPC   C2F 4774   3.125   3.899   2.589  0.5566 -0.3219  0.0100
   92POPC   C2G 4775   3.219   3.816   2.501 -0.3622 -1.4617  0.0744
   92POPC   C2H 4776   3.175   3.826   2.354 -0.5588 -0.1458  0.2039
   92POPC   C2I 4777   3.268   3.739   2.269 -0.1250  0.1099  0.4105
   92POPC   C2J 4778   3.216   3.759   2.126  0.0919 -0.2551  0.2796
   92POPC   C2K 4779   3.318   3.715   2.021  0.0882 -0.2567  0.2768
   92POPC   C2L 4780   3.448   3.794   2.010 -0.2365  0.1787 -0.5191
   92POPC   C2M 4781   3.565   3.703   1.971 -0.4737 -0.3204 -0.0754
   92POPC   C2N 4782   3.591   3.599   2.080 -0.3107 -0.1545  0.0454
   92POPC   C2O 4783   3.704   3.506   2.035  0.1642  0.5703 -0.2668
   92POPC   C2P 4784   3.683   3.445   1.897  0.3906  0.1856 -0.1305
   93POPC   CN1 4785   1.151   5.883   3.916 -0.1116 -0.0261 -0.1361
   93POPC   CN2 4786   1.084   6.104   3.874 -0.2345 -0.1011  0.1496
   93POPC   CN3 4787   1.087   6.013   0.108  0.3618 -0.2548  0.1627
   93POPC   NTM 4788   1.054   5.986   3.956 -0.0387 -0.0975  0.2251
   93POPC    CA 4789   0.913   5.945   3.951  0.0365 -0.3374  0.0890
   93POPC    CB 4790   0.839   5.924   3.819 -0.2307 -0.6706  0.2923
   93POPC    OA 4791   0.915   5.835   3.737  0.0408 -0.2078  0.0375
   93POPC     P 4792   0.848   5.846   3.591  0.1747  0.0837 -0.0011
   93POPC    OB 4793   0.896   5.980   3.549  0.2566  0.0600  0.0177
   93POPC    OC 4794   0.706   5.804   3.600  0.0400  0.4877 -0.1916
   93POPC    OD 4795   0.950   5.738   3.530 -0.1950 -0.2781  0.0197
   93POPC    CC 4796   1.045   5.789   3.437  0.3925 -0.4795  0.5069
   93POPC    CD 4797   1.054   5.705   3.309 -0.2051  0.1250  0.0650
   93POPC    OE 4798   1.175   5.728   3.236 -0.2067 -0.3052 -0.0752
   93POPC   C1A 4799   1.289   5.663   3.259 -0.1247 -0.0388  0.2734
   93POPC    OF 4800   1.300   5.591   3.359 -0.2995  0.1293  0.4144
   93POPC   C1B 4801   1.408   5.685   3.174 -0.2201 -0.3490  0.0594
   93POPC   C1C 4802   1.369   5.694   3.027 -0.0189  0.0290  0.0273
   93POPC   C1D 4803   1.484   5.701   2.926 -0.2512 -0.4993 -0.2784
   93POPC   C1E 4804   1.442   5.606   2.813 -0.0188 -0.6963 -0.1992
   93POPC   C1F 4805   1.536   5.594   2.693 -0.2408  0.1572 -0.4697
   93POPC   C1G 4806   1.482   5.486   2.600 -0.1925 -0.0583 -0.2486
   93POPC   C1H 4807   1.573   5.474   2.477  0.7102 -0.0902  0.4164
   93POPC   C1I 4808   1.724   5.456   2.499  0.7646 -0.1929 -0.0295
   93POPC   C1J 4809   1.804   5.467   2.394 -0.0019 -0.6458 -0.6743
   93POPC   C1K 4810   1.743   5.489   2.255 -0.3051 -0.0484 -0.4487
   93POPC   C1L 4811   1.808   5.594   2.164  0.3016 -0.2614 -0.2649
   93POPC   C1M 4812   1.779   5.566   2.016  0.1410 -0.1284 -0.2587
   93POPC   C1N 4813   1.632   5.604   1.996  0.2018  0.3056  0.0970
   93POPC   C1O 4814   1.592   5.622   1.850 -0.1244  0.0533  0.1546
   93POPC   C1P 4815   1.448   5.672   1.832 -0.2380 -0.3904 -0.1792
   93POPC   C1Q 4816   1.355   5.582   1.914 -0.3648  0.0255  0.1342
   93POPC   C1R 4817   1.214   5.643   1.912 -0.2798  0.2334  0.3920
   93POPC    CE 4818   0.934   5.752   3.227  0.0355  0.5627 -0.0436
   93POPC    OG 4819   0.801   5.728   3.274  0.1688  0.2327  0.1635
   93POPC   C2A 4820   0.706   5.813   3.238  0.1908  0.0358 -0.3746
   93POPC    OH 4821   0.736   5.911   3.170  0.3028  0.0919 -0.2458
   93POPC   C2B 4822   0.569   5.765   3.267  0.5244 -0.6013  0.1707
   93POPC   C2C 4823   0.488   5.688   3.164 -0.6135  0.3580  0.3221
   93POPC   C2D 4824   0.439   5.772   3.046 -0.6632 -0.0429  0.0526
   93POPC   C2E 4825   0.379   5.690   2.932 -0.6497 -0.3417  0.2593
   93POPC   C2F 4826   0.318   5.781   2.825 -0.0506 -0.2325  0.0013
   93POPC   C2G 4827   0.238   5.699   2.723  0.1022 -0.0899 -0.2340
   93POPC   C2H 4828   0.200   5.785   2.602 -0.1531  0.1378  0.0060
   93POPC   C2I 4829   0.135   5.704   2.490 -0.3697  0.4253 -0.0755
   93POPC   C2J 4830   0.086   5.791   2.373 -1.0465 -0.4922 -0.4839
   93POPC   C2K 4831   6.244   5.890   2.415  0.0012  0.3475  0.3256
   93POPC   C2L 4832   6.100   5.841   2.397  0.0959  0.3558 -0.5083
   93POPC   C2M 4833   6.005   5.960   2.407 -0.1784  0.1069 -0.1652
   93POPC   C2N 4834   5.950   5.970   2.550  0.0881 -0.1794 -0.0393
   93POPC   C2O 4835   5.830   5.877   2.568  0.2154 -0.3443 -0.0382
   93POPC   C2P 4836   5.771   5.901   2.708 -0.1035 -0.9781 -0.0590
   94POPC   CN1 4837   3.770   2.353   3.400 -0.0072  0.3733 -0.1296
   94POPC   CN2 4838   3.680   2.257   3.599 -0.3900  0.4618  0.2768
   94POPC   CN3 4839   3.535   2.287   3.410 -0.2876 -0.3899  0.5043
   94POPC   NTM 4840   3.650   2.343   3.484 -0.0157 -0.0180 -0.1857
   94POPC    CA 4841   3.624   2.481   3.527  0.2518 -0.1221  0.3200
   94POPC    CB 4842   3.508   2.516   3.621  0.0302 -0.2663  0.1042
   94POPC    OA 4843   3.381   2.453   3.604 -0.1327  0.0701  0.0678
   94POPC     P 4844   3.265   2.564   3.608 -0.4398 -0.2383 -0.2814
   94POPC    OB 4845   3.312   2.648   3.495 -0.0743 -0.2018 -0.1021
   94POPC    OC 4846   3.257   2.618   3.745 -0.5415  0.5403 -0.5911
   94POPC    OD 4847   3.139   2.469   3.576 -0.7889  0.1154  0.0394
   94POPC    CC 4848   3.117   2.454   3.435 -0.5744  0.7064 -0.0592
   94POPC    CD 4849   3.074   2.314   3.391  0.2679  0.5488 -0.3941
   94POPC    OE 4850   3.073   2.295   3.250 -0.6867 -0.0648 -0.3063
   94POPC   C1A 4851   3.171   2.232   3.185  0.2587  0.8179  0.2487
   94POPC    OF 4852   3.278   2.204   3.239  0.2649  0.2623 -0.0538
   94POPC   C1B 4853   3.132   2.184   3.051  0.4149  0.4558  0.3330
   94POPC   C1C 4854   3.232   2.213   2.938  0.2177  0.3135  0.1202
   94POPC   C1D 4855   3.330   2.095   2.945  0.1103  0.1963 -0.3080
   94POPC   C1E 4856   3.303   1.977   2.851 -0.0079 -0.3343  0.3813
   94POPC   C1F 4857   3.322   2.020   2.706  0.0486 -0.1272  0.4488
   94POPC   C1G 4858   3.295   1.908   2.605 -0.0925 -0.0301  0.3776
   94POPC   C1H 4859   3.151   1.856   2.598  0.1191 -0.5934  0.1580
   94POPC   C1I 4860   3.126   1.761   2.481  0.3875 -0.1441 -0.2674
   94POPC   C1J 4861   3.080   1.802   2.363  0.1135 -0.2893 -0.2131
   94POPC   C1K 4862   3.015   1.938   2.337  0.3667 -0.1192  0.0267
   94POPC   C1L 4863   2.948   1.946   2.199  0.0645  0.5792  0.2091
   94POPC   C1M 4864   2.846   2.060   2.196 -0.4586  0.1200  0.2537
   94POPC   C1N 4865   2.760   2.044   2.071 -0.1324 -0.4845  0.1041
   94POPC   C1O 4866   2.624   2.113   2.079 -0.1092 -0.3606 -0.4967
   94POPC   C1P 4867   2.575   2.113   1.934  0.1161  0.0393 -0.5765
   94POPC   C1Q 4868   2.428   2.150   1.919 -0.1922 -0.5597  0.7673
   94POPC   C1R 4869   2.395   2.289   1.974 -0.2900 -0.1307 -0.3460
   94POPC    CE 4870   2.942   2.280   3.460  0.1833  0.3376 -0.6611
   94POPC    OG 4871   2.832   2.370   3.449 -0.0882  0.1533  0.4536
   94POPC   C2A 4872   2.706   2.327   3.459 -0.0529 -0.0294  0.1293
   94POPC    OH 4873   2.676   2.224   3.520 -0.2285  0.0428  0.1648
   94POPC   C2B 4874   2.606   2.426   3.413  0.0529  0.2371  0.4646
   94POPC   C2C 4875   2.560   2.402   3.269  0.3196  0.4587  0.3406
   94POPC   C2D 4876   2.661   2.400   3.154 -0.2082  0.1176 -0.1184
   94POPC   C2E 4877   2.711   2.541   3.121  0.4044 -0.0999 -0.1354
   94POPC   C2F 4878   2.773   2.553   2.982  0.4644  0.2302 -0.0799
   94POPC   C2G 4879   2.799   2.701   2.955  0.2425  0.3340  0.2666
   94POPC   C2H 4880   2.873   2.719   2.822 -0.5144  0.0146 -0.2086
   94POPC   C2I 4881   2.896   2.860   2.766  0.3285  0.0007  0.0769
   94POPC   C2J 4882   2.774   2.952   2.772  0.2078 -0.1643  0.1670
   94POPC   C2K 4883   2.795   3.099   2.809  1.0587 -0.1891 -0.2135
   94POPC   C2L 4884   2.834   3.122   2.955 -0.1682  0.0420  0.0797
   94POPC   C2M 4885   2.872   3.270   2.969 -0.8624  0.2455 -0.1465
   94POPC   C2N 4886   2.901   3.305   3.115 -0.3592 -0.6588 -0.0259
   94POPC   C2O 4887   3.025   3.234   3.170 -0.0482 -0.1705 -0.0891
   94POPC   C2P 4888   3.063   3.283   3.310 -0.2408  0.4284 -0.2463
   95POPC   CN1 4889   5.201   6.073   3.633  0.4220  0.0374  0.2572
   95POPC   CN2 4890   4.998   6.058   3.742  0.1542  0.0869 -0.5007
   95POPC   CN3 4891   5.006   6.195   3.559  0.1108 -0.1839 -0.1014
   95POPC   NTM 4892   5.086   6.155   3.675  0.3502  0.1499 -0.1511
   95POPC    CA 4893   5.137   6.271   3.750  0.3959 -0.2781  0.4884
   95POPC    CB 4894   5.044   0.039   3.853  0.4006  0.3587  0.0941
   95POPC    OA 4895   4.915   0.078   3.803  0.1867 -0.3565  0.0828
   95POPC     P 4896   4.886   0.226   3.859  0.3896 -0.2535 -0.0850
   95POPC    OB 4897   4.993   0.278   3.946  0.2387 -0.0084 -0.0447
   95POPC    OC 4898   4.739   0.232   3.873  0.4307 -0.5788  0.4778
   95POPC    OD 4899   4.918   0.276   3.709 -0.2588  0.3203 -0.0349
   95POPC    CC 4900   4.957   0.413   3.709 -0.0939  0.2731  0.0453
   95POPC    CD 4901   5.039   0.477   3.597 -0.2977  0.3612 -0.0547
   95POPC    OE 4902   5.106   0.600   3.626 -0.2272  0.2432  0.2900
   95POPC   C1A 4903   5.238   0.585   3.631 -0.2112  0.2541 -0.0795
   95POPC    OF 4904   5.294   0.477   3.648  0.0612  0.3663 -0.2615
   95POPC   C1B 4905   5.305   0.712   3.598 -0.2830  0.2676 -0.1763
   95POPC   C1C 4906   5.328   0.719   3.447 -0.1317  0.2282 -0.1555
   95POPC   C1D 4907   5.400   0.841   3.391  0.4734  0.0096  0.1371
   95POPC   C1E 4908   5.415   0.818   3.240  0.2778  0.0125  0.1164
   95POPC   C1F 4909   5.478   0.946   3.186 -0.1941  0.1444 -0.1217
   95POPC   C1G 4910   5.528   0.913   3.045 -0.1742 -0.3711  0.0054
   95POPC   C1H 4911   5.651   0.823   3.034  0.1083  0.0218 -0.0821
   95POPC   C1I 4912   5.670   0.824   2.883 -0.3647  0.4912 -0.1409
   95POPC   C1J 4913   5.789   0.839   2.826 -0.1638  0.2053  0.2043
   95POPC   C1K 4914   5.909   0.862   2.919 -0.0397  0.0013  0.0956
   95POPC   C1L 4915   5.986   0.992   2.902 -0.2105  0.0804 -0.0765
   95POPC   C1M 4916   6.125   0.988   2.966 -0.1850  0.0657 -0.1334
   95POPC   C1N 4917   6.239   0.950   2.871 -0.0473 -0.2565  0.1583
   95POPC   C1O 4918   0.094   0.934   2.961  0.0274  0.7142  0.2387
   95POPC   C1P 4919   0.218   0.866   2.902 -0.4691 -0.1531  0.1826
   95POPC   C1Q 4920   0.325   0.841   3.007  0.0323  0.6700 -0.1172
   95POPC   C1R 4921   0.282   0.745   3.119  0.1786  0.3571 -0.3272
   95POPC    CE 4922   4.956   0.479   3.469 -0.2701 -0.3421 -0.0841
   95POPC    OG 4923   5.031   0.497   3.349  0.3517  0.1199  0.3716
   95POPC   C2A 4924   4.984   0.428   3.246 -0.2498  0.5288  0.3697
   95POPC    OH 4925   4.904   0.335   3.255 -0.1503  0.4003 -0.0373
   95POPC   C2B 4926   5.057   0.458   3.121 -0.1128 -0.2955  0.2503
   95POPC   C2C 4927   4.998   0.574   3.041 -0.3924 -0.6978 -0.1335
   95POPC   C2D 4928   4.977   0.543   2.892 -0.4024  0.6778 -0.4352
   95POPC   C2E 4929   5.112   0.511   2.828 -0.5654 -0.0579 -0.4250
   95POPC   C2F 4930   5.201   0.636   2.819 -0.6467  0.0471  0.1835
   95POPC   C2G 4931   5.180   0.730   2.700 -0.1537  0.0971  0.1334
   95POPC   C2H 4932   5.203   0.659   2.566 -0.1550  0.2458  0.0549
   95POPC   C2I 4933   5.192   0.764   2.456 -0.2177  0.0870 -0.0903
   95POPC   C2J 4934   5.208   0.711   2.313  1.1992  0.1933  0.0145
   95POPC   C2K 4935   5.135   0.583   2.272  0.5484  0.5974 -0.1006
   95POPC   C2L 4936   5.151   0.572   2.120 -0.3354  0.0212 -0.1630
   95POPC   C2M 4937   5.086   0.443   2.071 -0.2310 -0.0871 -0.0169
   95POPC   C2N 4938   5.165   0.313   2.092 -0.0317  0.1202  0.5318
   95POPC   C2O 4939   5.089   0.196   2.028  0.2224  0.3451 -0.2003
   95POPC   C2P 4940   5.182   0.080   1.991  0.3268  0.6082 -0.7663
   96POPC   CN1 4941   5.972   2.564   3.919 -0.4515 -0.1731  0.0990
   96POPC   CN2 4942   5.878   2.562   0.149 -0.3033 -0.0569 -0.3479
   96POPC   CN3 4943   5.995   2.758   0.060 -0.1195 -0.0330 -0.1849
   96POPC   NTM 4944   5.990   2.611   0.068 -0.0661 -0.0247 -0.0003
   96POPC    CA 4945   6.115   2.570   0.135  0.1146 -0.2829 -0.4908
   96POPC    CB 4946   6.235   2.521   0.053  0.3270 -0.1106 -0.2831
   96POPC    OA 4947   6.236   2.380   0.036  0.4336 -0.1149 -0.2437
   96POPC     P 4948   0.095   2.331   3.937  0.4024 -0.0114 -0.3462
   96POPC    OB 4949   0.108   2.186   3.963 -0.4169  0.0312  0.3396
   96POPC    OC 4950   0.211   2.420   3.962  0.2709  0.3719 -1.0654
   96POPC    OD 4951   0.024   2.357   3.794  0.0133 -0.1847 -0.1858
   96POPC    CC 4952   6.216   2.244   3.748 -0.0127 -0.2485  0.0109
   96POPC    CD 4953   6.100   2.279   3.655  0.0952  0.2627  0.0632
   96POPC    OE 4954   6.014   2.166   3.635 -0.2632  0.5697 -0.1372
   96POPC   C1A 4955   5.893   2.174   3.689 -0.0670 -0.3231  0.4435
   96POPC    OF 4956   5.863   2.247   3.783  0.2065  0.1375  0.1730
   96POPC   C1B 4957   5.802   2.075   3.626  0.0400  0.1574 -0.4856
   96POPC   C1C 4958   5.687   2.149   3.559 -0.2393  0.6644  0.5303
   96POPC   C1D 4959   5.736   2.245   3.450 -0.1221  0.6899  0.6065
   96POPC   C1E 4960   5.634   2.306   3.355 -0.1026 -0.7946 -0.4083
   96POPC   C1F 4961   5.703   2.404   3.259 -0.1608 -0.0915  0.2567
   96POPC   C1G 4962   5.802   2.343   3.159 -0.1382  0.2046  0.0974
   96POPC   C1H 4963   5.889   2.453   3.097 -0.1703 -0.0177 -0.3430
   96POPC   C1I 4964   5.985   2.374   3.008 -0.2193 -0.1650 -0.2653
   96POPC   C1J 4965   6.029   2.415   2.889 -0.3036  0.4101 -0.1000
   96POPC   C1K 4966   5.962   2.536   2.826  0.4448  0.6014 -0.5409
   96POPC   C1L 4967   5.891   2.493   2.697  0.3496 -0.0330 -0.2781
   96POPC   C1M 4968   5.829   2.612   2.623  0.1225 -0.0033 -0.0438
   96POPC   C1N 4969   5.743   2.562   2.506  0.0893 -0.2333  0.0783
   96POPC   C1O 4970   5.809   2.472   2.401  0.3188  0.1229 -0.0845
   96POPC   C1P 4971   5.709   2.448   2.289  0.0980  0.0370  0.1301
   96POPC   C1Q 4972   5.767   2.357   2.181  0.1048  0.2595 -0.0561
   96POPC   C1R 4973   5.662   2.325   2.075  0.0437 -0.2504  0.1550
   96POPC    CE 4974   6.166   2.341   3.531  0.3877  0.1463  0.1590
   96POPC    OG 4975   0.004   2.268   3.470  0.1261 -0.1806  0.0938
   96POPC   C2A 4976   0.009   2.292   3.339 -0.2121 -0.2536  0.0680
   96POPC    OH 4977   6.175   2.315   3.274  0.2916  0.5197 -0.4597
   96POPC   C2B 4978   0.144   2.273   3.282 -0.3369 -0.0563 -0.2972
   96POPC   C2C 4979   0.164   2.332   3.142 -0.7849 -0.1019 -0.3808
   96POPC   C2D 4980   0.133   2.233   3.030 -0.5106 -0.0519 -0.4989
   96POPC   C2E 4981   0.157   2.274   2.884 -0.4287  0.7274 -0.2721
   96POPC   C2F 4982   0.156   2.170   2.772 -0.0847  0.0997  0.2999
   96POPC   C2G 4983   0.200   2.238   2.642  0.1469  0.7369  0.7058
   96POPC   C2H 4984   0.108   2.352   2.599 -0.2370  0.1334 -0.0965
   96POPC   C2I 4985   0.142   2.425   2.468  0.1716  0.1404  0.0108
   96POPC   C2J 4986   0.017   2.505   2.431 -0.0236 -0.1860 -0.0490
   96POPC   C2K 4987   0.016   2.517   2.278  0.2486 -0.2229 -0.0545
   96POPC   C2L 4988   6.158   2.590   2.230  0.4765  0.3411  0.1986
   96POPC   C2M 4989   6.149   2.562   2.080 -0.3723  0.2136  0.2719
   96POPC   C2N 4990   6.002   2.584   2.041 -0.3170  0.1741  0.0386
   96POPC   C2O 4991   5.991   2.574   1.889 -0.4696  0.4061  0.0338
   96POPC   C2P 4992   6.012   2.429   1.845  0.0608  0.5416 -0.1582
   97POPC   CN1 4993   2.809   0.249   3.920  0.0846 -0.0948 -0.1532
   97POPC   CN2 4994   2.795   0.217   3.687  0.4144  0.3814  0.0317
   97POPC   CN3 4995   2.792   0.434   3.785  0.2000 -0.0241  0.1183
   97POPC   NTM 4996   2.742   0.297   3.798 -0.0990  0.0720  0.0117
   97POPC    CA 4997   2.598   0.286   3.826 -0.0281  0.2958  0.4724
   97POPC    CB 4998   2.503   0.337   3.717 -0.0552 -0.3497  0.1932
   97POPC    OA 4999   2.484   0.474   3.682  0.2865 -0.4245 -0.3050
   97POPC     P 5000   2.366   0.489   3.572 -0.1014 -0.0387  0.1566
   97POPC    OB 5001   2.331   0.632   3.581  0.0530  0.0363 -0.3943
   97POPC    OC 5002   2.273   0.377   3.600  0.1278 -0.2157  0.2187
   97POPC    OD 5003   2.468   0.470   3.449 -0.0037 -0.0938  0.2451
   97POPC    CC 5004   2.488   0.587   3.370 -0.0144 -0.2832 -0.0446
   97POPC    CD 5005   2.635   0.625   3.348 -0.1292  0.1101 -0.1531
   97POPC    OE 5006   2.650   0.760   3.303 -0.2886  0.3626  0.5353
   97POPC   C1A 5007   2.762   0.826   3.329 -0.1547  0.2295  0.2983
   97POPC    OF 5008   2.842   0.777   3.409 -0.0395  0.0385  0.0676
   97POPC   C1B 5009   2.751   0.963   3.274 -0.2400  0.1752  0.1781
   97POPC   C1C 5010   2.763   0.972   3.122 -0.1632  0.0857  0.1788
   97POPC   C1D 5011   2.634   0.936   3.047 -0.0801 -0.1603  0.1508
   97POPC   C1E 5012   2.653   0.921   2.896 -0.3209  0.6920  0.0270
   97POPC   C1F 5013   2.695   1.050   2.826  0.4775  0.0641 -0.6614
   97POPC   C1G 5014   2.572   1.141   2.828  0.2390 -0.2674 -0.2296
   97POPC   C1H 5015   2.610   1.274   2.763 -0.1084 -0.3368 -0.5744
   97POPC   C1I 5016   2.492   1.372   2.757  0.0604 -0.0803  0.1531
   97POPC   C1J 5017   2.422   1.381   2.644  0.0826 -0.2610  0.1251
   97POPC   C1K 5018   2.463   1.288   2.530 -0.3818 -0.3697  0.0460
   97POPC   C1L 5019   2.387   1.318   2.400 -0.6047 -0.1939  0.2180
   97POPC   C1M 5020   2.454   1.246   2.283  0.0944  0.5694  0.1438
   97POPC   C1N 5021   2.376   1.284   2.157  0.2880 -0.2594 -0.2354
   97POPC   C1O 5022   2.458   1.254   2.032  0.4581 -0.1125 -0.1594
   97POPC   C1P 5023   2.385   1.276   1.900 -0.1957  0.3183  0.2711
   97POPC   C1Q 5024   2.304   1.153   1.856  0.5419 -0.3386  0.7167
   97POPC   C1R 5025   2.212   1.181   1.737  1.1160 -0.2918  0.2795
   97POPC    CE 5026   2.708   0.515   3.271  0.6317  0.3495  0.2146
   97POPC    OG 5027   2.673   0.510   3.132 -0.3110  0.1120  0.4554
   97POPC   C2A 5028   2.769   0.514   3.040 -0.5997  0.5373  0.1675
   97POPC    OH 5029   2.870   0.577   3.069 -0.3171  0.1522  0.0229
   97POPC   C2B 5030   2.726   0.485   2.902 -0.3945 -0.3100  0.2745
   97POPC   C2C 5031   2.704   0.335   2.881  0.0120 -0.3230 -0.0963
   97POPC   C2D 5032   2.721   0.298   2.734  0.0257 -0.2724 -0.1073
   97POPC   C2E 5033   2.607   0.363   2.655  0.2401  0.2101 -0.0213
   97POPC   C2F 5034   2.603   0.336   2.505 -0.1354 -0.5191  0.1172
   97POPC   C2G 5035   2.502   0.430   2.437  0.0885 -0.0519  0.4277
   97POPC   C2H 5036   2.489   0.389   2.291  0.2121  1.0967  0.0861
   97POPC   C2I 5037   2.373   0.451   2.213 -0.2798  0.1508  0.0475
   97POPC   C2J 5038   2.418   0.591   2.171  0.3106  0.0502  0.3350
   97POPC   C2K 5039   2.301   0.689   2.183  0.4920  0.3247 -0.1240
   97POPC   C2L 5040   2.281   0.719   2.331  0.3897 -0.3402 -0.0030
   97POPC   C2M 5041   2.380   0.824   2.381  0.0388  0.0448 -0.1055
   97POPC   C2N 5042   2.358   0.869   2.525  0.1419 -0.0812 -0.0500
   97POPC   C2O 5043   2.361   0.744   2.614  0.5979 -0.2195 -0.2594
   97POPC   C2P 5044   2.342   0.777   2.762  0.9840 -0.2818 -0.1943
   98POPC   CN1 5045   1.031   1.548   0.238 -0.3469  0.0743  0.5635
   98POPC   CN2 5046   0.903   1.351   0.283 -0.8758 -0.0005  0.1502
   98POPC   CN3 5047   0.924   1.433   0.061 -0.1480 -0.0466  0.2018
   98POPC   NTM 5048   0.910   1.473   0.202 -0.1802 -0.0141  0.1893
   98POPC    CA 5049   0.784   1.549   0.206 -0.2417 -0.1276  0.3719
   98POPC    CB 5050   0.647   1.481   0.194 -0.2232 -0.1238  0.1387
   98POPC    OA 5051   0.627   1.381   0.094  0.0162  0.2246 -0.2644
   98POPC     P 5052   0.467   1.370   0.073  0.0421  0.0158 -0.3518
   98POPC    OB 5053   0.412   1.506   0.052  0.2873  0.2396  0.4275
   98POPC    OC 5054   0.433   1.289   0.192  0.5760 -0.4543 -0.5155
   98POPC    OD 5055   0.471   1.286   3.924  0.0144 -0.3916 -0.1058
   98POPC    CC 5056   0.494   1.383   3.821  0.2902 -0.4956 -0.1428
   98POPC    CD 5057   0.633   1.373   3.757  0.4974  0.4131  0.1511
   98POPC    OE 5058   0.663   1.472   3.659 -0.2652  0.2285 -0.2739
   98POPC   C1A 5059   0.690   1.598   3.693  0.1555 -0.0334  0.3718
   98POPC    OF 5060   0.730   1.623   3.806 -0.0990 -0.7093  0.6167
   98POPC   C1B 5061   0.684   1.682   3.571  0.2789 -0.1275  0.3015
   98POPC   C1C 5062   0.819   1.667   3.502  0.3060  0.1324  0.2974
   98POPC   C1D 5063   0.823   1.685   3.350 -0.1515 -0.3981  0.2200
   98POPC   C1E 5064   0.760   1.582   3.255 -0.9103  0.4021 -0.1550
   98POPC   C1F 5065   0.809   1.443   3.294 -0.6218  0.5216 -0.0884
   98POPC   C1G 5066   0.772   1.322   3.207  0.1172 -0.0654  0.3935
   98POPC   C1H 5067   0.831   1.345   3.068  0.1631  0.1471  0.4478
   98POPC   C1I 5068   0.768   1.248   2.968  0.5250 -0.1080  0.4690
   98POPC   C1J 5069   0.732   1.288   2.847  0.2596  0.0425  0.5966
   98POPC   C1K 5070   0.768   1.432   2.809 -0.0868 -0.0669 -0.1615
   98POPC   C1L 5071   0.652   1.533   2.808 -0.4772 -0.5144 -0.2915
   98POPC   C1M 5072   0.697   1.672   2.765 -0.5543 -0.4255 -0.0825
   98POPC   C1N 5073   0.797   1.731   2.865 -0.2582 -0.0233 -0.6134
   98POPC   C1O 5074   0.824   1.879   2.833 -0.4083  0.0297 -0.4970
   98POPC   C1P 5075   0.903   1.943   2.946 -0.6346 -0.5438 -0.0083
   98POPC   C1Q 5076   0.818   1.961   3.072 -0.0959 -0.0093  0.2896
   98POPC   C1R 5077   0.899   2.015   3.190  0.0249 -0.1734  0.2819
   98POPC    CE 5078   0.646   1.229   3.705 -0.3689  0.4867 -0.2816
   98POPC    OG 5079   0.551   1.196   3.603 -0.8607  0.7647  0.0851
   98POPC   C2A 5080   0.512   1.070   3.588 -0.3102  0.6119 -0.0729
   98POPC    OH 5081   0.540   0.985   3.672 -0.1002  0.1266 -0.6272
   98POPC   C2B 5082   0.460   1.037   3.453  0.1824 -0.1778 -0.0703
   98POPC   C2C 5083   0.541   0.945   3.361 -0.0380 -0.2877 -0.1545
   98POPC   C2D 5084   0.572   0.798   3.390 -0.1673 -0.2383  0.2368
   98POPC   C2E 5085   0.642   0.752   3.263 -0.1148  0.1183  0.1358
   98POPC   C2F 5086   0.703   0.611   3.263  0.0470  0.1873  0.1323
   98POPC   C2G 5087   0.746   0.557   3.127  0.1080  0.0829  0.1922
   98POPC   C2H 5088   0.624   0.572   3.035  0.1112  0.1373  0.1969
   98POPC   C2I 5089   0.641   0.525   2.890  0.6510  0.3184  0.1979
   98POPC   C2J 5090   0.509   0.555   2.819  0.5300 -0.1699  0.2161
   98POPC   C2K 5091   0.522   0.548   2.667  0.1959  0.2868  0.1658
   98POPC   C2L 5092   0.552   0.409   2.611 -0.1900 -0.0423  0.7722
   98POPC   C2M 5093   0.425   0.333   2.572  0.2946 -0.4637 -0.0157
   98POPC   C2N 5094   0.337   0.398   2.465  0.5974  0.3021  0.1889
   98POPC   C2O 5095   0.246   0.290   2.407  0.4222  0.3632  0.3471
   98POPC   C2P 5096   0.139   0.355   2.320  0.0768  0.0090  0.5039
   99POPC   CN1 5097   3.703   1.692   3.745  0.1761  0.4592 -0.1466
   99POPC   CN2 5098   3.542   1.683   3.561  0.9609 -0.0622  0.0984
   99POPC   CN3 5099   3.531   1.845   3.734  0.1386 -0.1215  0.6813
   99POPC   NTM 5100   3.562   1.705   3.705  0.0223 -0.0570  0.2333
   99POPC    CA 5101   3.467   1.618   3.776 -0.0468 -0.2153 -0.0515
   99POPC    CB 5102   3.495   1.468   3.789 -0.0681 -0.1824  0.4028
   99POPC    OA 5103   3.562   1.413   3.675  0.3410  0.2510  0.4324
   99POPC     P 5104   3.621   1.268   3.713 -0.0139 -0.0473 -0.1468
   99POPC    OB 5105   3.568   1.221   3.843  0.4944  0.0796  0.1085
   99POPC    OC 5106   3.761   1.262   3.666  0.1258  1.0809  0.1026
   99POPC    OD 5107   3.521   1.200   3.607 -0.0735  0.1067 -0.1895
   99POPC    CC 5108   3.588   1.173   3.483 -0.1379 -0.6687 -0.0619
   99POPC    CD 5109   3.514   1.230   3.362 -0.3967 -0.0513  0.3765
   99POPC    OE 5110   3.525   1.156   3.240 -0.4965  0.6203 -0.0440
   99POPC   C1A 5111   3.441   1.055   3.219  0.6781 -0.4510  0.3215
   99POPC    OF 5112   3.345   1.039   3.293  0.2877  0.7378  0.0799
   99POPC   C1B 5113   3.462   0.973   3.097  0.2040 -0.3470  0.1696
   99POPC   C1C 5114   3.468   1.064   2.974 -0.2913 -0.3317  0.1553
   99POPC   C1D 5115   3.487   1.004   2.834 -0.3876 -0.5562  0.2392
   99POPC   C1E 5116   3.437   1.102   2.728 -0.6856 -0.6565  0.2853
   99POPC   C1F 5117   3.439   1.047   2.586 -0.3599  0.3577 -0.1092
   99POPC   C1G 5118   3.340   1.137   2.510 -0.1713  0.6011 -0.0681
   99POPC   C1H 5119   3.359   1.103   2.362 -0.0879 -0.3181  0.1485
   99POPC   C1I 5120   3.239   1.158   2.285  0.0374  0.3186  0.3994
   99POPC   C1J 5121   3.203   1.089   2.176  0.7516  0.3613  0.1307
   99POPC   C1K 5122   3.275   0.965   2.125  0.0003 -0.1794  0.3705
   99POPC   C1L 5123   3.291   0.974   1.973 -0.0397  0.0016  0.3770
   99POPC   C1M 5124   3.349   0.843   1.919 -0.4919 -0.0889  0.1050
   99POPC   C1N 5125   3.368   0.846   1.767 -0.3515 -0.0333  0.1238
   99POPC   C1O 5126   3.486   0.931   1.720 -0.1608 -0.1671  0.3562
   99POPC   C1P 5127   3.625   0.887   1.767  0.3984  0.4456 -0.6973
   99POPC   C1Q 5128   3.650   0.753   1.698 -0.2303 -0.0361  0.0054
   99POPC   C1R 5129   3.792   0.701   1.720 -0.2447 -0.2291 -0.3589
   99POPC    CE 5130   3.548   1.379   3.357  0.2910 -0.2263 -0.4295
   99POPC    OG 5131   3.508   1.477   3.261 -0.3216 -0.2415 -0.1914
   99POPC   C2A 5132   3.379   1.508   3.246 -0.1968  0.3275 -0.1177
   99POPC    OH 5133   3.302   1.496   3.341 -0.0405  0.1939 -0.0058
   99POPC   C2B 5134   3.336   1.570   3.119  0.4084  0.7652 -0.1142
   99POPC   C2C 5135   3.393   1.501   2.995 -0.0035  0.4556 -0.1321
   99POPC   C2D 5136   3.373   1.582   2.868  0.0018 -0.2396 -0.5830
   99POPC   C2E 5137   3.478   1.519   2.776 -0.0321 -0.1835 -0.6608
   99POPC   C2F 5138   3.487   1.583   2.637  0.2105 -0.1578 -0.6337
   99POPC   C2G 5139   3.550   1.487   2.537  0.2833 -0.2984 -0.4536
   99POPC   C2H 5140   3.546   1.540   2.393  0.4253  0.1808 -0.2814
   99POPC   C2I 5141   3.628   1.448   2.302 -0.5029 -0.3333 -0.6109
   99POPC   C2J 5142   3.606   1.479   2.153  0.0282  0.8421 -0.4609
   99POPC   C2K 5143   3.678   1.371   2.072  0.1539  0.1668  0.5253
   99POPC   C2L 5144   3.830   1.389   2.073  0.1173  0.6181 -0.4326
   99POPC   C2M 5145   3.907   1.281   1.997 -0.0203  0.3306 -0.1676
   99POPC   C2N 5146   4.055   1.318   2.002 -0.0283  0.3520 -0.0905
   99POPC   C2O 5147   4.138   1.295   2.129 -0.2709  0.0222  0.0072
   99POPC   C2P 5148   4.282   1.319   2.086 -0.3396  0.6304  0.1076
  100POPC   CN1 5149   6.026   0.392   3.761 -0.0401 -0.3992 -0.1226
  100POPC   CN2 5150   6.146   0.595   3.716  0.1838 -0.2342  0.0942
  100POPC   CN3 5151   6.261   0.398   3.800 -0.3613 -0.4713  0.4796
  100POPC   NTM 5152   6.137   0.478   3.804 -0.2262 -0.2396  0.0466
  100POPC    CA 5153   6.123   0.509   3.947 -0.0914 -0.4556  0.1077
  100POPC    CB 5154   6.006   0.601   3.983  0.2643  0.0834 -0.0995
  100POPC    OA 5155   6.020   0.739   3.949  0.1863  0.0765 -0.1578
  100POPC     P 5156   5.945   0.840   0.060 -0.1835 -0.3272 -0.0220
  100POPC    OB 5157   5.983   0.976   0.016 -0.9302  0.0807  0.5607
  100POPC    OC 5158   5.997   0.774   0.182 -0.3016  0.2281  0.3363
  100POPC    OD 5159   5.795   0.793   0.026 -0.1426 -0.4173 -0.0748
  100POPC    CC 5160   5.760   0.843   3.885 -0.0806  0.3330  0.1932
  100POPC    CD 5161   5.633   0.794   3.816  0.3852  0.3528 -0.6979
  100POPC    OE 5162   5.650   0.729   3.690  0.4606 -0.2332 -0.3892
  100POPC   C1A 5163   5.691   0.602   3.695  0.5240 -0.2053 -0.2079
  100POPC    OF 5164   5.730   0.542   3.795 -0.3532  0.4803  0.5707
  100POPC   C1B 5165   5.696   0.554   3.555  0.4272  0.0228 -0.2913
  100POPC   C1C 5166   5.824   0.601   3.486  0.5376  0.1136 -0.0250
  100POPC   C1D 5167   5.818   0.571   3.336 -0.4069  0.5383 -0.0791
  100POPC   C1E 5168   5.954   0.550   3.269 -0.3234 -0.1871  0.3048
  100POPC   C1F 5169   5.933   0.527   3.119  0.0295 -0.5870  0.3126
  100POPC   C1G 5170   6.073   0.510   3.061 -0.0186  0.2296 -0.0603
  100POPC   C1H 5171   6.073   0.527   2.909  0.1705  0.2810 -0.0558
  100POPC   C1I 5172   6.213   0.532   2.848  0.0081  0.4856 -0.4125
  100POPC   C1J 5173   6.239   0.603   2.738  0.5090  0.6201 -0.2119
  100POPC   C1K 5174   6.127   0.668   2.656  0.1023 -0.2193 -0.3398
  100POPC   C1L 5175   6.179   0.712   2.519 -0.1784  0.2092 -0.3108
  100POPC   C1M 5176   6.063   0.764   2.434 -0.7132 -0.2444  0.1407
  100POPC   C1N 5177   5.990   0.878   2.506 -0.0917 -0.0184  0.4179
  100POPC   C1O 5178   5.878   0.922   2.412 -0.1234  0.3360  0.6215
  100POPC   C1P 5179   5.799   1.036   2.478 -0.3839  0.2829  0.4044
  100POPC   C1Q 5180   5.656   1.040   2.423 -0.2651 -0.3259  0.0324
  100POPC   C1R 5181   5.564   0.932   2.479  0.1312 -0.3306  0.6808
  100POPC    CE 5182   5.517   0.894   3.826 -0.0401 -0.1808 -0.2455
  100POPC    OG 5183   5.522   1.014   3.749 -0.3374  0.0506  0.0893
  100POPC   C2A 5184   5.430   1.106   3.776 -0.2252  0.1103  0.2673
  100POPC    OH 5185   5.320   1.066   3.812 -0.1687 -0.1035  0.2048
  100POPC   C2B 5186   5.453   1.236   3.709 -0.1927  0.0236  0.1094
  100POPC   C2C 5187   5.328   1.301   3.650 -0.4827 -0.1372  0.5395
  100POPC   C2D 5188   5.383   1.428   3.584 -0.4587 -0.2170  0.4068
  100POPC   C2E 5189   5.279   1.500   3.497 -0.2248 -0.3353  0.0266
  100POPC   C2F 5190   5.305   1.462   3.351 -0.2080 -0.4194  0.0517
  100POPC   C2G 5191   5.207   1.354   3.306  0.1641 -0.6115 -0.3003
  100POPC   C2H 5192   5.201   1.361   3.153  0.4255 -0.1471 -0.2908
  100POPC   C2I 5193   5.167   1.238   3.068 -0.0696  0.2130 -0.6203
  100POPC   C2J 5194   5.038   1.167   3.108 -0.0422  0.0586 -0.8058
  100POPC   C2K 5195   5.003   1.053   3.011  0.2012 -0.4367 -0.3176
  100POPC   C2L 5196   4.981   1.101   2.867  0.6077 -0.3254 -0.3447
  100POPC   C2M 5197   4.927   0.983   2.785 -0.0633 -0.2721  0.0111
  100POPC   C2N 5198   4.882   1.048   2.654  0.3674 -0.0011 -0.0076
  100POPC   C2O 5199   4.850   0.937   2.554 -0.2636  0.0577  0.1219
  100POPC   C2P 5200   4.754   0.981   2.443 -0.0238  0.4131  0.0565
  101POPC   CN1 5201   5.580   2.256   3.907 -0.2951  0.3080 -0.0476
  101POPC   CN2 5202   5.385   2.194   3.778 -0.0657  0.4451 -0.4840
  101POPC   CN3 5203   5.407   2.418   3.876 -0.3219  0.0723 -0.1141
  101POPC   NTM 5204   5.435   2.275   3.890 -0.3202  0.0741 -0.0998
  101POPC    CA 5205   5.387   2.222   0.029  0.1322  0.1595  0.1098
  101POPC    CB 5206   5.237   2.205   0.059  0.1893 -0.1204  0.2377
  101POPC    OA 5207   5.156   2.321   0.046  0.2381 -0.1080  0.0365
  101POPC     P 5208   4.999   2.289   0.032  0.1499  0.2632  0.1546
  101POPC    OB 5209   4.952   2.428   0.052  0.5582  0.4766 -0.3634
  101POPC    OC 5210   4.977   2.183   0.133 -0.1590  0.0913 -0.0900
  101POPC    OD 5211   5.013   2.253   3.864 -0.1343 -0.5976  0.3242
  101POPC    CC 5212   4.982   2.365   3.782 -0.4162 -0.6123  0.4078
  101POPC    CD 5213   5.002   2.338   3.632  0.0461  0.3641  0.2829
  101POPC    OE 5214   5.026   2.458   3.558  0.2421  0.0870 -0.1020
  101POPC   C1A 5215   5.153   2.491   3.534  0.3442 -0.0640  0.2216
  101POPC    OF 5216   5.247   2.460   3.606  0.1019 -0.4398  0.3798
  101POPC   C1B 5217   5.166   2.614   3.452  0.5073 -0.0006  0.3426
  101POPC   C1C 5218   5.260   2.584   3.335  0.0361 -0.1776  0.0034
  101POPC   C1D 5219   5.186   2.494   3.236 -0.3417 -0.0020  0.1249
  101POPC   C1E 5220   5.058   2.557   3.181 -0.1785  0.4249  0.2233
  101POPC   C1F 5221   4.972   2.462   3.097  0.5750 -0.2936  0.2490
  101POPC   C1G 5222   5.048   2.421   2.971  0.1657 -0.1262 -0.0547
  101POPC   C1H 5223   4.944   2.375   2.868 -0.4100 -0.2961  0.5964
  101POPC   C1I 5224   4.901   2.231   2.895  0.3876 -0.4860  0.8933
  101POPC   C1J 5225   4.933   2.143   2.801  0.2513  0.1967  0.2018
  101POPC   C1K 5226   4.987   2.205   2.672  0.0635  0.0372  0.0463
  101POPC   C1L 5227   4.956   2.104   2.562  0.7655 -0.5567  0.3943
  101POPC   C1M 5228   5.044   2.113   2.437  0.3268 -0.0857  0.1189
  101POPC   C1N 5229   4.994   2.234   2.358  0.2693 -0.1780  0.0143
  101POPC   C1O 5230   5.118   2.296   2.293 -0.0298  0.2705 -0.1321
  101POPC   C1P 5231   5.091   2.437   2.240 -0.0714  0.4013  0.2378
  101POPC   C1Q 5232   5.216   2.488   2.168  0.0767  0.0167  0.2229
  101POPC   C1R 5233   5.191   2.637   2.145 -0.0697  0.1160  0.9894
  101POPC    CE 5234   4.884   2.248   3.592  0.6209 -0.2764  0.0174
  101POPC    OG 5235   4.865   2.245   3.450  0.2695 -0.3890  0.0679
  101POPC   C2A 5236   4.743   2.200   3.421  0.1024  0.0378  0.1002
  101POPC    OH 5237   4.693   2.108   3.485  0.0196  0.1549  0.2061
  101POPC   C2B 5238   4.692   2.250   3.292  0.0296  0.4993  0.3062
  101POPC   C2C 5239   4.540   2.269   3.282  0.0146  0.1292 -0.2236
  101POPC   C2D 5240   4.507   2.318   3.142  0.2328 -0.3109 -0.4317
  101POPC   C2E 5241   4.554   2.458   3.103 -0.1357  0.0751  0.4783
  101POPC   C2F 5242   4.541   2.487   2.953  0.2049 -0.0675  0.4205
  101POPC   C2G 5243   4.396   2.480   2.904  0.3111  0.3298  0.0421
  101POPC   C2H 5244   4.407   2.506   2.754 -0.4606  0.4668  0.0049
  101POPC   C2I 5245   4.520   2.432   2.682 -0.3050 -0.0079  0.7286
  101POPC   C2J 5246   4.530   2.483   2.538 -0.3270 -0.2038  0.6570
  101POPC   C2K 5247   4.635   2.402   2.462 -0.8584 -0.1219 -0.1720
  101POPC   C2L 5248   4.623   2.453   2.318  0.3080  0.1171 -0.1964
  101POPC   C2M 5249   4.715   2.373   2.225 -0.3841 -0.8686 -0.0411
  101POPC   C2N 5250   4.685   2.412   2.081 -0.3351 -0.2355  0.1174
  101POPC   C2O 5251   4.548   2.367   2.029 -0.2769 -0.1309 -0.1307
  101POPC   C2P 5252   4.561   2.222   1.984  0.5218  0.0025 -0.3420
  102POPC   CN1 5253   5.540   5.605   3.930  0.7629  0.1715  0.0155
  102POPC   CN2 5254   5.522   5.838   3.950  0.1012 -0.5282 -0.2734
  102POPC   CN3 5255   5.656   5.729   0.123  0.6185  0.1240  0.0543
  102POPC   NTM 5256   5.536   5.714   0.040  0.4617 -0.1138  0.3225
  102POPC    CA 5257   5.411   5.704   0.117  0.1562 -0.0695 -0.1591
  102POPC    CB 5258   5.272   5.719   0.056 -0.1307 -0.0511  0.4891
  102POPC    OA 5259   5.223   5.611   3.963 -0.0997  0.0749  0.3036
  102POPC     P 5260   5.104   5.653   3.864  0.0171 -0.1612  0.0628
  102POPC    OB 5261   5.019   5.760   3.920  0.2372 -0.1538  0.3836
  102POPC    OC 5262   5.042   5.538   3.794 -0.3486 -0.0626  0.2257
  102POPC    OD 5263   5.199   5.726   3.756 -0.1573 -0.2560 -0.1551
  102POPC    CC 5264   5.268   5.636   3.668  0.4263 -0.0495  0.0861
  102POPC    CD 5265   5.327   5.689   3.538  0.0261  0.4958  0.1214
  102POPC    OE 5266   5.414   5.803   3.544  0.3483  0.2501  0.1210
  102POPC   C1A 5267   5.542   5.783   3.575  0.4301  0.0044 -0.3664
  102POPC    OF 5268   5.563   5.679   3.638 -0.0008  0.2460  0.1770
  102POPC   C1B 5269   5.639   5.881   3.521 -0.1741  0.5978 -0.3849
  102POPC   C1C 5270   5.676   5.991   3.620 -0.5872  0.0195  0.4297
  102POPC   C1D 5271   5.687   6.132   3.560  0.4331 -0.2888 -0.1213
  102POPC   C1E 5272   5.709   6.242   3.664  0.5030  0.0096 -0.4501
  102POPC   C1F 5273   5.679   0.087   3.615 -0.1340 -0.0862 -0.3442
  102POPC   C1G 5274   5.531   0.102   3.579 -0.2837  0.0711  0.3278
  102POPC   C1H 5275   5.495   0.234   3.509  0.1084 -0.3355 -0.6537
  102POPC   C1I 5276   5.357   0.251   3.446  0.0042 -0.7911 -0.5557
  102POPC   C1J 5277   5.338   0.315   3.331 -0.1896 -0.7831 -0.5194
  102POPC   C1K 5278   5.439   0.388   3.242 -0.1152 -0.4486 -0.1625
  102POPC   C1L 5279   5.445   0.309   3.111  0.5579 -0.0494 -0.3771
  102POPC   C1M 5280   5.517   0.391   3.004  0.8960  0.1785  0.0211
  102POPC   C1N 5281   5.513   0.307   2.876  0.0542 -0.1624  0.2652
  102POPC   C1O 5282   5.547   0.407   2.765  0.3379 -0.1523  0.3617
  102POPC   C1P 5283   5.539   0.349   2.624 -0.4014  0.1642  0.2713
  102POPC   C1Q 5284   5.546   0.465   2.524 -0.3370 -0.4054 -0.3916
  102POPC   C1R 5285   5.526   0.427   2.377 -0.4377 -0.1716 -0.4384
  102POPC    CE 5286   5.197   5.713   3.461  0.1601 -0.2596 -0.3533
  102POPC    OG 5287   5.183   5.752   3.324  0.2641  0.0582 -0.2743
  102POPC   C2A 5288   5.089   5.838   3.287  0.0432 -0.1485 -0.1946
  102POPC    OH 5289   5.032   5.904   3.374  0.0945  0.2166 -0.4329
  102POPC   C2B 5290   5.064   5.860   3.142 -0.0168 -0.0706 -0.1724
  102POPC   C2C 5291   4.956   5.759   3.103  0.2420 -0.4376  0.0538
  102POPC   C2D 5292   4.925   5.747   2.954  0.2416  0.1874  0.0005
  102POPC   C2E 5293   4.867   5.870   2.883  0.0852 -0.0334 -0.2570
  102POPC   C2F 5294   4.825   5.852   2.737  0.2770 -0.2207 -0.2895
  102POPC   C2G 5295   4.775   5.976   2.662 -0.2710 -0.0386  0.3648
  102POPC   C2H 5296   4.729   5.923   2.526  0.3016 -0.0514  0.1739
  102POPC   C2I 5297   4.676   6.032   2.433 -0.0047 -0.2161  0.1566
  102POPC   C2J 5298   4.725   6.016   2.289 -0.3606 -0.0563  0.0165
  102POPC   C2K 5299   4.688   6.108   2.172  0.1265 -0.0029 -0.0976
  102POPC   C2L 5300   4.730   6.037   2.043  0.0813  0.0258 -0.1283
  102POPC   C2M 5301   4.749   6.143   1.935 -0.1600  0.3081  0.1038
  102POPC   C2N 5302   4.854   6.099   1.832 -0.5643 -0.5275  0.0384
  102POPC   C2O 5303   4.873   6.218   1.738  0.4049 -0.2922  0.5252
  102POPC   C2P 5304   4.979   6.169   1.639  0.0355 -0.1108  0.0403
  103POPC   CN1 5305   4.286   0.400   0.143  0.3313  0.3830 -0.3811
  103POPC   CN2 5306   4.403   0.363   3.929  0.1460  0.1808  0.1175
  103POPC   CN3 5307   4.205   0.479   3.922  0.3292  0.2937  0.1007
  103POPC   NTM 5308   4.269   0.365   0.001 -0.0142 -0.0965 -0.2252
  103POPC    CA 5309   4.208   0.234   3.961 -0.2048  0.0176 -0.3460
  103POPC    CB 5310   4.063   0.201   0.010 -0.1483 -0.1552 -0.2805
  103POPC    OA 5311   3.965   0.278   3.929 -0.1112  0.0536 -0.1054
  103POPC     P 5312   3.819   0.213   3.906 -0.1750  0.2632 -0.2996
  103POPC    OB 5313   3.725   0.311   3.848 -0.2135  0.3969 -0.0120
  103POPC    OC 5314   3.778   0.132   0.035  0.2730 -0.1538 -0.4252
  103POPC    OD 5315   3.863   0.119   3.783  0.2168 -0.1398  0.1428
  103POPC    CC 5316   3.881   0.189   3.659  0.4585 -0.2537  0.1126
  103POPC    CD 5317   4.024   0.195   3.605  0.4566 -0.3505  0.0958
  103POPC    OE 5318   4.038   0.285   3.495  0.3394 -0.4064  0.0348
  103POPC   C1A 5319   4.164   0.325   3.475  0.0336  0.6008  0.1274
  103POPC    OF 5320   4.238   0.322   3.573  0.8821 -0.3014 -0.5308
  103POPC   C1B 5321   4.190   0.386   3.343 -0.1222  0.5143  0.0556
  103POPC   C1C 5322   4.181   0.283   3.231 -0.4840 -0.0119  0.5640
  103POPC   C1D 5323   4.161   0.353   3.096 -0.3469  0.0028  0.5514
  103POPC   C1E 5324   4.153   0.264   2.973  0.5382  0.6263  0.0225
  103POPC   C1F 5325   4.092   0.334   2.851 -0.1115  0.6428  0.3476
  103POPC   C1G 5326   4.132   0.273   2.717  0.2342  1.0012  0.2841
  103POPC   C1H 5327   4.031   0.301   2.605  0.4169  0.6248  0.0198
  103POPC   C1I 5328   4.080   0.265   2.465  0.6082  0.3090  0.1649
  103POPC   C1J 5329   4.051   0.344   2.361  0.8880  0.2999  0.0801
  103POPC   C1K 5330   3.955   0.461   2.379 -0.2421 -0.5920 -0.0126
  103POPC   C1L 5331   3.884   0.508   2.252  0.1072 -0.5261 -0.1847
  103POPC   C1M 5332   3.989   0.569   2.159  0.1690  0.0298  0.2469
  103POPC   C1N 5333   3.949   0.573   2.012 -0.0439  0.7785  0.3189
  103POPC   C1O 5334   4.072   0.607   1.928  0.2953 -0.1995  0.4042
  103POPC   C1P 5335   4.117   0.753   1.928 -0.2436 -0.0194 -0.4947
  103POPC   C1Q 5336   4.257   0.768   1.868  0.0410  0.1601  0.2055
  103POPC   C1R 5337   4.291   0.917   1.861  0.1366  0.1536  0.4936
  103POPC    CE 5338   4.083   0.054   3.597  0.7305 -0.2124 -0.3474
  103POPC    OG 5339   4.011   6.253   3.523  0.2984 -0.1817  0.0292
  103POPC   C2A 5340   4.054   6.223   3.401  0.1242 -0.5580  0.0585
  103POPC    OH 5341   4.156   6.271   3.352 -0.1879  0.2778  0.2103
  103POPC   C2B 5342   3.973   6.125   3.325 -0.3823  0.1896 -0.3862
  103POPC   C2C 5343   3.998   6.153   3.177  0.4414  0.2910 -0.2309
  103POPC   C2D 5344   3.957   6.030   3.095 -0.2832  0.6451 -0.4003
  103POPC   C2E 5345   3.975   6.029   2.943  0.4334 -0.6238 -0.3138
  103POPC   C2F 5346   4.120   6.078   2.932  0.3464 -0.3905 -0.4150
  103POPC   C2G 5347   4.169   6.082   2.787 -0.2996 -0.3528 -0.6355
  103POPC   C2H 5348   4.272   6.191   2.760  0.3465 -0.8633 -0.2639
  103POPC   C2I 5349   4.318   6.209   2.615 -0.0629 -0.2025 -0.3195
  103POPC   C2J 5350   4.416   0.028   2.600 -0.0879 -0.1259  0.0932
  103POPC   C2K 5351   4.532   0.005   2.696 -0.1700 -0.6324  0.0718
  103POPC   C2L 5352   4.645   0.108   2.683 -0.5284 -0.2642 -0.1305
  103POPC   C2M 5353   4.707   0.100   2.543 -0.0488 -0.3742  0.0863
  103POPC   C2N 5354   4.756   0.236   2.493 -0.2234 -0.2581  0.2275
  103POPC   C2O 5355   4.769   0.237   2.341  0.9051 -0.1611  0.3185
  103POPC   C2P 5356   4.796   0.380   2.293 -0.2155 -0.0794 -0.0972
  104POPC   CN1 5357   1.204   1.711   3.295 -0.5998  0.2611 -0.3318
  104POPC   CN2 5358   1.247   1.942   3.260  0.2919 -0.3893  0.5292
  104POPC   CN3 5359   1.430   1.784   3.280  0.2014 -0.0628 -0.2047
  104POPC   NTM 5360   1.296   1.821   3.328  0.2175 -0.5771  0.2489
  104POPC    CA 5361   1.323   1.846   3.470  0.2828 -0.2699  0.1816
  104POPC    CB 5362   1.205   1.863   3.566  0.0474  0.6275 -0.2532
  104POPC    OA 5363   1.103   1.955   3.527 -0.6050  0.0012 -0.0468
  104POPC     P 5364   1.136   2.100   3.589 -0.2775 -0.0411 -0.1220
  104POPC    OB 5365   1.187   2.193   3.486 -0.3735  0.3040  0.1420
  104POPC    OC 5366   1.218   2.078   3.710 -0.2889  0.0623 -0.0951
  104POPC    OD 5367   0.986   2.150   3.620 -0.2244  0.0356  0.0138
  104POPC    CC 5368   0.930   2.224   3.511  0.1178  0.1101 -0.1138
  104POPC    CD 5369   0.784   2.271   3.516  0.1406  0.1643  0.0381
  104POPC    OE 5370   0.742   2.348   3.403 -0.2000 -0.2012 -0.0842
  104POPC   C1A 5371   0.617   2.385   3.379 -0.0797 -0.0865 -0.5479
  104POPC    OF 5372   0.528   2.348   3.456  0.3578 -0.5186 -0.2431
  104POPC   C1B 5373   0.599   2.487   3.273  0.2928  0.1362 -0.4014
  104POPC   C1C 5374   0.537   2.422   3.149 -0.4453  0.2853 -0.1143
  104POPC   C1D 5375   0.640   2.363   3.053 -0.1002  0.5801  0.0726
  104POPC   C1E 5376   0.566   2.288   2.942  0.1681 -0.0013  0.2806
  104POPC   C1F 5377   0.659   2.222   2.840 -0.0996  0.0187  0.0216
  104POPC   C1G 5378   0.724   2.319   2.741 -0.4225  0.3554  0.1368
  104POPC   C1H 5379   0.790   2.269   2.612 -0.2943  0.3444  0.2066
  104POPC   C1I 5380   0.845   2.392   2.538 -0.1858  0.2675  0.1595
  104POPC   C1J 5381   0.836   2.407   2.406  0.0167 -0.1326  0.0966
  104POPC   C1K 5382   0.770   2.291   2.331 -0.1660 -0.1469  0.2760
  104POPC   C1L 5383   0.664   2.359   2.245  0.4692  0.2069 -0.2428
  104POPC   C1M 5384   0.601   2.253   2.154  0.4970  0.1419 -0.1866
  104POPC   C1N 5385   0.476   2.301   2.078  0.0790 -0.8630 -0.1505
  104POPC   C1O 5386   0.346   2.292   2.158  0.1246  1.0998  0.1896
  104POPC   C1P 5387   0.227   2.323   2.066 -0.2056  0.0293  0.2414
  104POPC   C1Q 5388   0.186   2.208   1.974 -1.0564  0.1542  0.4584
  104POPC   C1R 5389   0.080   2.254   1.874 -0.5617 -0.0384 -0.1579
  104POPC    CE 5390   0.751   2.328   3.654 -0.0787 -0.7784  0.3771
  104POPC    OG 5391   0.693   2.238   3.749  0.1509 -0.5252  0.7603
  104POPC   C2A 5392   0.605   2.288   3.835  0.0371 -0.1885  0.4458
  104POPC    OH 5393   0.577   2.408   3.829 -0.6364 -0.3737 -0.2720
  104POPC   C2B 5394   0.524   2.179   3.893  0.4508 -0.7036  0.0697
  104POPC   C2C 5395   0.397   2.156   3.811  0.2113 -0.1414  0.2750
  104POPC   C2D 5396   0.411   2.059   3.693  0.1420 -0.4889  0.5545
  104POPC   C2E 5397   0.286   2.057   3.605  0.1613 -0.1891  0.5209
  104POPC   C2F 5398   0.321   1.990   3.472 -0.0965  0.2800  0.2125
  104POPC   C2G 5399   0.436   2.049   3.392 -0.1397  0.3429  0.1973
  104POPC   C2H 5400   0.425   1.986   3.253  0.1202  0.1899  0.2450
  104POPC   C2I 5401   0.439   1.834   3.239 -0.1709  0.1792  0.0418
  104POPC   C2J 5402   0.427   1.785   3.095  0.4049  0.5233 -0.1289
  104POPC   C2K 5403   0.288   1.812   3.036  0.0233 -0.8868  0.0856
  104POPC   C2L 5404   0.300   1.761   2.892 -0.0364 -0.0256 -0.2321
  104POPC   C2M 5405   0.168   1.790   2.821 -0.2790  0.2029  0.3086
  104POPC   C2N 5406   0.177   1.700   2.697 -0.0658  0.6356  0.0073
  104POPC   C2O 5407   0.057   1.738   2.611  0.1613  0.1300 -0.5328
  104POPC   C2P 5408   0.055   1.678   2.470 -0.2100 -0.5466 -0.2472
  105POPC   CN1 5409   0.281   2.693   3.503 -0.7615 -0.6105 -1.0562
  105POPC   CN2 5410   0.436   2.633   3.657 -0.5314 -0.6503  0.2126
  105POPC   CN3 5411   0.281   2.467   3.594 -0.2692 -0.1421  0.4213
  105POPC   NTM 5412   0.295   2.610   3.624 -0.4771  0.1016 -0.5975
  105POPC    CA 5413   0.200   2.657   3.726 -0.4081 -0.2469 -0.3691
  105POPC    CB 5414   0.061   2.719   3.705 -0.1877  0.1778 -0.5793
  105POPC    OA 5415   6.259   2.635   3.613  0.2399 -0.5647 -0.2280
  105POPC     P 5416   6.124   2.710   3.567  0.3286 -0.2889 -0.0452
  105POPC    OB 5417   6.095   2.810   3.671 -0.1937 -0.0377 -0.4302
  105POPC    OC 5418   6.035   2.599   3.525  0.6457 -0.7507  0.4840
  105POPC    OD 5419   6.193   2.777   3.438  0.1724  0.1014  0.0754
  105POPC    CC 5420   6.201   2.686   3.328 -0.2452  0.0743  0.0672
  105POPC    CD 5421   6.239   2.749   3.194 -0.3355  0.4688  0.2245
  105POPC    OE 5422   0.108   2.788   3.173 -0.2720 -0.0971 -0.4410
  105POPC   C1A 5423   0.205   2.699   3.151 -0.0874 -0.0492  0.1654
  105POPC    OF 5424   0.219   2.608   3.231  0.5514 -0.2381 -0.1524
  105POPC   C1B 5425   0.308   2.749   3.057 -0.1930 -0.0060  0.0721
  105POPC   C1C 5426   0.320   2.656   2.935  0.1514 -0.3288  0.3498
  105POPC   C1D 5427   0.410   2.695   2.818  0.1037 -0.0354  0.4101
  105POPC   C1E 5428   0.403   2.586   2.712 -0.2352  0.1280  0.2628
  105POPC   C1F 5429   0.505   2.623   2.605 -0.1774  0.5682  0.4718
  105POPC   C1G 5430   0.478   2.760   2.542  0.2041  0.5732  0.3120
  105POPC   C1H 5431   0.586   2.783   2.436 -0.1441 -0.7210 -0.3511
  105POPC   C1I 5432   0.537   2.902   2.353  0.6422 -0.3301 -0.2665
  105POPC   C1J 5433   0.478   2.901   2.234 -0.2599 -0.4216  0.1730
  105POPC   C1K 5434   0.450   2.772   2.156 -0.5976 -0.0925 -0.2507
  105POPC   C1L 5435   0.316   2.775   2.082 -0.6465 -0.4390 -0.1767
  105POPC   C1M 5436   0.291   2.661   1.983  0.4657 -1.1029  0.2897
  105POPC   C1N 5437   0.393   2.660   1.869  0.1816  0.3944 -0.0015
  105POPC   C1O 5438   0.351   2.566   1.755 -0.0942  0.4897  0.0216
  105POPC   C1P 5439   0.231   2.625   1.680  0.1536  0.5046 -0.3608
  105POPC   C1Q 5440   0.188   2.538   1.562 -0.1908  0.6524 -0.3457
  105POPC   C1R 5441   0.072   2.589   1.477 -0.3155  0.4527 -0.2955
  105POPC    CE 5442   6.130   2.852   3.164 -0.4595  0.3301  0.1988
  105POPC    OG 5443   5.997   2.802   3.144 -0.2063 -0.4016  0.3296
  105POPC   C2A 5444   5.889   2.878   3.147  0.0862  0.0019  0.7167
  105POPC    OH 5445   5.895   3.001   3.147 -0.7096  0.0425  0.4422
  105POPC   C2B 5446   5.767   2.794   3.146  0.4468 -0.5132  0.2772
  105POPC   C2C 5447   5.709   2.807   3.005 -0.1029 -0.5991  0.4947
  105POPC   C2D 5448   5.569   2.748   2.991 -0.1865 -0.3818  0.4042
  105POPC   C2E 5449   5.523   2.739   2.845  0.3131 -0.0183  0.2258
  105POPC   C2F 5450   5.389   2.668   2.834  0.4546 -0.2372 -0.0874
  105POPC   C2G 5451   5.410   2.517   2.850  0.5203 -0.2147  0.0377
  105POPC   C2H 5452   5.445   2.437   2.724 -0.3047 -0.0265 -0.3137
  105POPC   C2I 5453   5.476   2.289   2.744 -0.9848 -0.0951  0.2963
  105POPC   C2J 5454   5.512   2.230   2.607 -0.3066  0.0996  0.3852
  105POPC   C2K 5455   5.566   2.087   2.614 -0.0944  0.1577 -0.0097
  105POPC   C2L 5456   5.552   2.038   2.470  0.0829  0.0313  0.0161
  105POPC   C2M 5457   5.599   1.896   2.439 -0.1127 -0.0340  0.0178
  105POPC   C2N 5458   5.524   1.826   2.326 -0.3528 -0.0819  0.2074
  105POPC   C2O 5459   5.563   1.898   2.197  0.3167 -0.1045  0.3974
  105POPC   C2P 5460   5.706   1.876   2.148  0.3093 -0.1896  0.4134
  106POPC   CN1 5461   1.541   3.633   3.808  0.2503 -0.3343 -0.1684
  106POPC   CN2 5462   1.664   3.557   3.630  0.0416 -0.3433 -0.6841
  106POPC   CN3 5463   1.461   3.433   3.694  0.2117 -0.3226 -0.2067
  106POPC   NTM 5464   1.579   3.509   3.740  0.2238 -0.1802 -0.4688
  106POPC    CA 5465   1.662   3.432   3.834 -0.8979 -0.4828  0.2950
  106POPC    CB 5466   1.696   3.283   3.831  0.0004 -0.2831  0.3131
  106POPC    OA 5467   1.746   3.239   3.705  0.6406 -0.2120  0.5389
  106POPC     P 5468   1.737   3.079   3.696  0.0035 -0.1491 -0.0117
  106POPC    OB 5469   1.594   3.045   3.674  0.1340 -0.3788 -0.5179
  106POPC    OC 5470   1.816   2.999   3.792  0.1975  0.4925  0.3643
  106POPC    OD 5471   1.803   3.069   3.550  0.0845 -0.4052  0.0407
  106POPC    CC 5472   1.723   3.090   3.434  0.1620 -0.3512 -0.0037
  106POPC    CD 5473   1.687   3.234   3.396 -0.3358 -0.4306  0.1502
  106POPC    OE 5474   1.571   3.254   3.314 -0.0876 -0.1733 -0.1415
  106POPC   C1A 5475   1.499   3.366   3.316 -0.4169 -0.3881  0.0923
  106POPC    OF 5476   1.541   3.456   3.389 -0.0608 -0.1715 -0.3722
  106POPC   C1B 5477   1.373   3.358   3.240 -0.1910 -0.0128 -0.3281
  106POPC   C1C 5478   1.373   3.433   3.107  0.1359  0.3150 -0.1425
  106POPC   C1D 5479   1.231   3.437   3.051 -0.0132 -0.7010  0.1547
  106POPC   C1E 5480   1.246   3.531   2.932 -0.2242 -0.0417  0.6439
  106POPC   C1F 5481   1.109   3.536   2.865  0.2982 -0.4104 -0.4713
  106POPC   C1G 5482   1.120   3.504   2.715  0.3562  0.5060 -0.6674
  106POPC   C1H 5483   0.978   3.528   2.663 -0.0413  0.2993  0.2978
  106POPC   C1I 5484   0.984   3.505   2.512 -0.1785  0.3372  0.2866
  106POPC   C1J 5485   0.869   3.495   2.446  0.0063  0.4442 -0.0542
  106POPC   C1K 5486   0.746   3.512   2.536 -0.3060  0.6115 -0.5060
  106POPC   C1L 5487   0.630   3.551   2.444 -0.8659  0.8756  0.3053
  106POPC   C1M 5488   0.643   3.690   2.382 -0.0447  0.8019  0.3013
  106POPC   C1N 5489   0.622   3.672   2.232  0.2255 -0.1522  0.3670
  106POPC   C1O 5490   0.639   3.812   2.170  0.1121 -0.4345 -0.3114
  106POPC   C1P 5491   0.578   3.808   2.030 -0.7556 -0.2820  0.0562
  106POPC   C1Q 5492   0.578   3.936   1.946 -0.2987 -0.0209  0.4469
  106POPC   C1R 5493   0.471   3.924   1.837  0.5081  1.0113 -0.4864
  106POPC    CE 5494   1.823   3.296   3.362 -0.5076 -0.1715 -0.0787
  106POPC    OG 5495   1.896   3.215   3.269  0.0770  0.0146  0.2141
  106POPC   C2A 5496   2.017   3.261   3.236  0.3667 -0.6619  0.3117
  106POPC    OH 5497   2.083   3.313   3.326 -0.3832 -0.1781  0.5979
  106POPC   C2B 5498   2.077   3.202   3.115  0.1537 -0.1391 -0.0521
  106POPC   C2C 5499   2.078   3.305   3.002  0.4099  0.0495  0.1214
  106POPC   C2D 5500   2.091   3.243   2.862 -0.4108  0.3835 -0.1083
  106POPC   C2E 5501   2.064   3.337   2.745 -0.2213 -0.1541 -0.5875
  106POPC   C2F 5502   2.038   3.262   2.614 -0.1384 -0.6748 -0.3068
  106POPC   C2G 5503   2.021   3.354   2.493 -0.6867 -0.1976  0.1263
  106POPC   C2H 5504   2.047   3.261   2.375  0.2804 -0.0135  0.1826
  106POPC   C2I 5505   2.026   3.342   2.247 -0.0022 -0.0266  0.2199
  106POPC   C2J 5506   1.999   3.250   2.128  0.1204 -0.0380  0.2010
  106POPC   C2K 5507   1.993   3.331   1.999 -0.0014  0.0599  0.2678
  106POPC   C2L 5508   2.129   3.361   1.935 -0.2310 -0.0803 -0.2889
  106POPC   C2M 5509   2.105   3.427   1.799 -0.5137 -0.0944 -0.2458
  106POPC   C2N 5510   2.236   3.470   1.733 -0.2278  0.1630  0.4774
  106POPC   C2O 5511   2.288   3.598   1.799  0.2652  0.0231  0.3649
  106POPC   C2P 5512   2.433   3.614   1.754  0.3426  0.0598  0.6305
  107POPC   CN1 5513   3.134   0.837   3.306 -0.1635 -0.1102 -0.3482
  107POPC   CN2 5514   3.317   0.709   3.387  0.2875  0.5743 -0.1681
  107POPC   CN3 5515   3.115   0.596   3.325 -0.2142  0.3544 -0.0609
  107POPC   NTM 5516   3.171   0.719   3.385  0.2571  0.1714 -0.1193
  107POPC    CA 5517   3.114   0.758   3.515 -0.1537  0.4942 -0.3911
  107POPC    CB 5518   3.103   0.652   3.625  0.0038  0.6787 -0.1993
  107POPC    OA 5519   3.229   0.594   3.660 -0.3592  0.1226  0.1989
  107POPC     P 5520   3.221   0.453   3.737 -0.0105 -0.0603 -0.0961
  107POPC    OB 5521   3.162   0.353   3.645 -0.3286  0.1183 -0.0863
  107POPC    OC 5522   3.148   0.482   3.862  0.6816 -0.2097  0.3499
  107POPC    OD 5523   3.381   0.446   3.754 -0.0178  0.1902  0.0923
  107POPC    CC 5524   3.443   0.366   3.652  0.3961  0.0962  0.4133
  107POPC    CD 5525   3.532   0.438   3.550  0.0852 -0.0571  0.0315
  107POPC    OE 5526   3.570   0.350   3.444  0.2070  0.0112  0.0182
  107POPC   C1A 5527   3.550   0.380   3.316 -0.2300  0.2756  0.1459
  107POPC    OF 5528   3.463   0.465   3.295  0.2162  0.5927 -0.4502
  107POPC   C1B 5529   3.585   0.269   3.224 -0.3411  0.1526  0.2519
  107POPC   C1C 5530   3.734   0.254   3.195 -0.4553  0.2159 -0.3857
  107POPC   C1D 5531   3.776   0.147   3.093  0.1976  0.0411  0.0589
  107POPC   C1E 5532   3.733   0.179   2.950 -0.0420 -0.5181  0.0016
  107POPC   C1F 5533   3.773   0.069   2.852  0.4785 -0.3606  0.0334
  107POPC   C1G 5534   3.698   0.085   2.720  0.5746  0.1715  0.0419
  107POPC   C1H 5535   3.710   6.261   2.628  0.2344 -0.2414  0.5371
  107POPC   C1I 5536   3.818   6.262   2.519 -0.4952  0.1181 -0.1921
  107POPC   C1J 5537   3.862   6.145   2.474 -0.3919  0.1182 -0.0911
  107POPC   C1K 5538   3.802   6.009   2.510 -0.0759 -0.0379 -0.1477
  107POPC   C1L 5539   3.903   5.895   2.493 -0.0709 -0.0309 -0.1658
  107POPC   C1M 5540   3.846   5.763   2.544  0.0861 -0.0476 -0.0308
  107POPC   C1N 5541   3.945   5.647   2.553  0.1310  0.0220  0.4196
  107POPC   C1O 5542   3.883   5.512   2.586  0.0420 -0.0615 -0.0819
  107POPC   C1P 5543   3.972   5.388   2.581 -0.2669 -0.2865 -0.0368
  107POPC   C1Q 5544   3.895   5.262   2.622  0.3403 -0.7303 -0.2299
  107POPC   C1R 5545   3.914   5.230   2.770 -0.0697 -0.0035 -0.0099
  107POPC    CE 5546   3.645   0.510   3.623  0.0904  0.0037 -0.0366
  107POPC    OG 5547   3.729   0.590   3.540 -0.0060  0.3086  0.1596
  107POPC   C2A 5548   3.679   0.706   3.499 -0.2878  0.0244 -0.3098
  107POPC    OH 5549   3.599   0.770   3.568  0.4968 -0.1327  0.7655
  107POPC   C2B 5550   3.780   0.767   3.410  0.0312  0.1422  0.1311
  107POPC   C2C 5551   3.749   0.787   3.262  0.4915  0.3585  0.0624
  107POPC   C2D 5552   3.748   0.655   3.186  0.6586  0.3123  0.1406
  107POPC   C2E 5553   3.720   0.680   3.037 -0.1829 -0.1346  0.2184
  107POPC   C2F 5554   3.754   0.557   2.952 -0.1534  0.3555 -0.4774
  107POPC   C2G 5555   3.645   0.546   2.845 -0.3863 -0.2466 -0.1826
  107POPC   C2H 5556   3.685   0.476   2.715 -0.0281 -0.7287  0.1855
  107POPC   C2I 5557   3.587   0.496   2.599  0.2562  0.0269  0.0660
  107POPC   C2J 5558   3.563   0.645   2.577 -0.4105 -0.1013 -0.0991
  107POPC   C2K 5559   3.520   0.682   2.435  0.0272  0.1257 -0.1745
  107POPC   C2L 5560   3.398   0.625   2.362  0.0163 -0.1376  0.0488
  107POPC   C2M 5561   3.270   0.660   2.439  0.2964 -0.1019  0.5049
  107POPC   C2N 5562   3.150   0.581   2.386  0.3086  0.1182  0.1441
  107POPC   C2O 5563   3.148   0.432   2.420  0.0133  0.1071  0.0744
  107POPC   C2P 5564   3.025   0.368   2.354  0.0609  0.0973 -0.0044
  108POPC   CN1 5565   2.322   3.182   3.548 -0.3670  0.1668  0.0369
  108POPC   CN2 5566   2.141   3.035   3.500  0.3566 -0.0622 -0.3380
  108POPC   CN3 5567   2.126   3.168   3.690  0.1499  0.3587 -0.5699
  108POPC   NTM 5568   2.222   3.092   3.609  0.0907 -0.3565  0.0185
  108POPC    CA 5569   2.287   2.995   3.698 -0.1373 -0.2367  0.3129
  108POPC    CB 5570   2.361   2.883   3.625 -0.3486 -0.0922 -0.1279
  108POPC    OA 5571   2.282   2.785   3.557 -0.0522 -0.3274 -0.1346
  108POPC     P 5572   2.369   2.692   3.458  0.0860 -0.1252 -0.2044
  108POPC    OB 5573   2.301   2.561   3.455  0.1252 -0.1376 -0.5842
  108POPC    OC 5574   2.510   2.706   3.499  0.0803  0.0256 -0.2355
  108POPC    OD 5575   2.338   2.777   3.324  0.3820 -0.0871 -0.2487
  108POPC    CC 5576   2.243   2.715   3.238  0.1057  0.0995 -0.0794
  108POPC    CD 5577   2.217   2.804   3.116 -0.1343  0.0752 -0.0473
  108POPC    OE 5578   2.100   2.757   3.050  0.2602 -0.6631 -0.2323
  108POPC   C1A 5579   1.979   2.784   3.097  0.3447  0.1486 -0.4610
  108POPC    OF 5580   1.975   2.837   3.209 -0.0506 -0.2214 -0.2969
  108POPC   C1B 5581   1.870   2.747   3.004  0.5370 -0.1338 -0.5734
  108POPC   C1C 5582   1.838   2.875   2.926 -0.0635  0.2088  0.2309
  108POPC   C1D 5583   1.939   2.898   2.813  0.0326  0.4355  0.3598
  108POPC   C1E 5584   1.926   2.792   2.703  0.5959  0.2176  0.5019
  108POPC   C1F 5585   2.028   2.814   2.590  0.0901 -0.4737 -0.0942
  108POPC   C1G 5586   2.024   2.713   2.475 -0.0282 -0.0656 -0.4476
  108POPC   C1H 5587   2.130   2.757   2.372  0.2158  0.8912  0.1963
  108POPC   C1I 5588   2.113   2.660   2.255  0.0905  0.5516  0.4901
  108POPC   C1J 5589   2.141   2.706   2.133 -0.1716 -0.2956  0.1099
  108POPC   C1K 5590   2.181   2.852   2.117 -0.1886 -0.3133 -0.1019
  108POPC   C1L 5591   2.199   2.851   1.965 -0.5406  0.0409 -0.1489
  108POPC   C1M 5592   2.244   2.991   1.923 -0.3156 -0.0617 -0.2509
  108POPC   C1N 5593   2.269   2.998   1.772 -1.3049  1.0997 -0.3773
  108POPC   C1O 5594   2.349   3.124   1.739 -0.1368  0.4285 -0.1642
  108POPC   C1P 5595   2.409   3.125   1.598 -0.1138 -0.1188 -0.1594
  108POPC   C1Q 5596   2.297   3.161   1.500 -0.4600  0.1646  0.3316
  108POPC   C1R 5597   2.368   3.206   1.372  0.1183 -0.6819  0.3374
  108POPC    CE 5598   2.345   2.805   3.032  0.0540 -0.2689  0.2294
  108POPC    OG 5599   2.345   2.900   2.925 -0.0217 -0.2327  0.2615
  108POPC   C2A 5600   2.388   2.858   2.806 -0.7595 -0.0974 -0.0565
  108POPC    OH 5601   2.435   2.745   2.790 -0.0895  0.1950 -0.1665
  108POPC   C2B 5602   2.363   2.955   2.697  0.6852  0.4962  0.1292
  108POPC   C2C 5603   2.466   2.942   2.585  0.5629  0.1303  0.0566
  108POPC   C2D 5604   2.426   3.034   2.469  0.2388 -0.0715  0.0091
  108POPC   C2E 5605   2.534   3.055   2.363  0.2475 -0.3007 -0.0283
  108POPC   C2F 5606   2.477   3.148   2.256 -0.6897 -0.4007  0.3716
  108POPC   C2G 5607   2.496   3.296   2.287 -0.3257 -0.4300  0.2975
  108POPC   C2H 5608   2.467   3.372   2.157 -0.1382 -0.2033  0.3867
  108POPC   C2I 5609   2.486   3.524   2.164 -0.1126 -0.1973  0.1712
  108POPC   C2J 5610   2.388   3.586   2.263 -0.0899  0.2654 -0.0923
  108POPC   C2K 5611   2.428   3.732   2.282  0.1545  0.1488  0.3116
  108POPC   C2L 5612   2.364   3.775   2.415  0.2908 -0.2914  0.5218
  108POPC   C2M 5613   2.443   3.898   2.462 -0.1086  0.2454 -0.1812
  108POPC   C2N 5614   2.377   3.975   2.576  0.3164 -0.2706  0.4239
  108POPC   C2O 5615   2.455   4.104   2.606 -0.0825  0.1881 -0.4636
  108POPC   C2P 5616   2.374   4.198   2.694 -0.1486 -0.2930 -0.0064
  109POPC   CN1 5617   5.117   2.084   3.221 -0.0336 -0.9747 -0.2110
  109POPC   CN2 5618   5.339   2.145   3.154  0.1956 -0.1561 -0.0406
  109POPC   CN3 5619   5.284   1.915   3.215 -0.1265 -0.4601  0.2304
  109POPC   NTM 5620   5.260   2.058   3.242  0.0995 -0.3237 -0.2905
  109POPC    CA 5621   5.309   2.085   3.378 -0.1216 -0.1982 -0.2359
  109POPC    CB 5622   5.265   2.002   3.499 -0.0633 -0.3797 -0.3392
  109POPC    OA 5623   5.128   2.025   3.531  0.0795 -0.0678  0.0601
  109POPC     P 5624   5.084   1.915   3.640  0.4015 -0.1244  0.1334
  109POPC    OB 5625   4.952   1.953   3.695  0.2132  0.5288 -0.7630
  109POPC    OC 5626   5.196   1.893   3.735 -0.2679 -0.0006  0.9664
  109POPC    OD 5627   5.052   1.784   3.552 -0.2701  0.2244 -0.1482
  109POPC    CC 5628   4.927   1.785   3.482 -0.3161  0.4283 -0.0637
  109POPC    CD 5629   4.906   1.662   3.393  0.2855  0.4178 -0.1950
  109POPC    OE 5630   4.827   1.693   3.277 -0.5019  0.5345  0.3648
  109POPC   C1A 5631   4.884   1.759   3.176  0.1763 -0.6826 -0.0745
  109POPC    OF 5632   5.000   1.799   3.181 -0.0858  0.0575  0.1991
  109POPC   C1B 5633   4.775   1.782   3.079  0.0067  0.1486  0.3091
  109POPC   C1C 5634   4.720   1.925   3.090  0.4889  0.4339 -0.8466
  109POPC   C1D 5635   4.590   1.935   3.011 -0.0657 -0.3459 -0.0566
  109POPC   C1E 5636   4.627   1.979   2.869 -0.1289 -0.1577 -0.0137
  109POPC   C1F 5637   4.496   1.991   2.791 -0.3133 -0.1185  0.3001
  109POPC   C1G 5638   4.517   2.021   2.642 -0.7680 -0.1814  0.2201
  109POPC   C1H 5639   4.578   1.912   2.553  0.2283  0.6739 -0.1584
  109POPC   C1I 5640   4.588   1.952   2.406  0.2444  0.6590 -0.1615
  109POPC   C1J 5641   4.684   1.909   2.325  0.2489  0.0140  0.1781
  109POPC   C1K 5642   4.790   1.812   2.377 -0.0064 -0.2820  0.1499
  109POPC   C1L 5643   4.872   1.733   2.275 -0.3800  0.1622 -0.5004
  109POPC   C1M 5644   4.808   1.608   2.215  0.2031 -0.4200  0.0731
  109POPC   C1N 5645   4.771   1.506   2.323 -0.2475  0.0789  0.4002
  109POPC   C1O 5646   4.752   1.369   2.258 -0.2605  0.1721  0.2061
  109POPC   C1P 5647   4.635   1.368   2.159 -0.3779 -0.4594  0.3423
  109POPC   C1Q 5648   4.631   1.243   2.071  0.0268 -0.4955  0.3705
  109POPC   C1R 5649   4.577   1.115   2.134 -0.8772 -0.1178  0.3781
  109POPC    CE 5650   4.856   1.549   3.482  0.3187  0.3507 -0.2612
  109POPC    OG 5651   4.732   1.566   3.551  0.1757 -0.2315 -0.3696
  109POPC   C2A 5652   4.690   1.465   3.627  0.2772  0.3161  0.4189
  109POPC    OH 5653   4.728   1.349   3.619 -0.1005  0.2447 -0.4037
  109POPC   C2B 5654   4.572   1.495   3.713 -0.2047 -0.3234 -0.0133
  109POPC   C2C 5655   4.444   1.479   3.631 -0.1350 -0.2453 -0.1377
  109POPC   C2D 5656   4.335   1.426   3.724  0.1895  0.0172  0.3957
  109POPC   C2E 5657   4.349   1.279   3.761  0.3181 -0.0382  0.1271
  109POPC   C2F 5658   4.344   1.190   3.636  0.2253 -0.1200  0.1884
  109POPC   C2G 5659   4.266   1.060   3.655  0.4099 -0.2340  0.1614
  109POPC   C2H 5660   4.298   0.970   3.535  0.0156  0.0244 -0.1418
  109POPC   C2I 5661   4.195   0.857   3.532 -0.1367  0.1599 -0.0437
  109POPC   C2J 5662   4.196   0.768   3.407 -0.4982  0.2480 -0.1091
  109POPC   C2K 5663   4.187   0.851   3.280  0.4114  0.1521 -0.2413
  109POPC   C2L 5664   4.155   0.755   3.165  0.6155 -0.1862 -0.0147
  109POPC   C2M 5665   4.242   0.788   3.044 -0.0886  0.2099 -0.4166
  109POPC   C2N 5666   4.194   0.717   2.917 -0.2473 -0.4211 -0.0093
  109POPC   C2O 5667   4.107   0.814   2.837 -0.5471 -0.4395  0.2949
  109POPC   C2P 5668   4.039   0.742   2.721 -0.1465  0.1525 -0.3184
  110POPC   CN1 5669   2.626   1.881   3.465  0.1047 -0.3179 -0.4315
  110POPC   CN2 5670   2.756   1.704   3.539 -0.4078 -0.2931  0.0446
  110POPC   CN3 5671   2.563   1.770   3.662 -0.3200  0.7126 -0.2523
  110POPC   NTM 5672   2.680   1.820   3.588 -0.0014  0.0748 -0.1869
  110POPC    CA 5673   2.759   1.906   3.677 -0.2260  0.2323 -0.1399
  110POPC    CB 5674   2.907   1.941   3.660 -0.0635 -0.3570  0.0368
  110POPC    OA 5675   3.002   1.834   3.660  0.2005 -0.1219 -0.1587
  110POPC     P 5676   3.150   1.895   3.679  0.2395 -0.2183 -0.1549
  110POPC    OB 5677   3.174   1.870   3.823  0.0018  0.2069 -0.0396
  110POPC    OC 5678   3.150   2.030   3.619 -0.1909 -0.1826 -0.0747
  110POPC    OD 5679   3.240   1.792   3.593 -0.0254 -0.5128 -0.0812
  110POPC    CC 5680   3.199   1.758   3.461 -0.1525  0.3842 -0.2817
  110POPC    CD 5681   3.195   1.865   3.352  0.3033  0.4544 -0.2298
  110POPC    OE 5682   3.127   1.821   3.234  0.2508 -0.5988  0.1811
  110POPC   C1A 5683   2.995   1.823   3.224  0.2651  0.4749  0.1575
  110POPC    OF 5684   2.930   1.851   3.325  0.4397 -0.1474  0.4448
  110POPC   C1B 5685   2.941   1.775   3.095  0.5561  0.0861  0.1795
  110POPC   C1C 5686   2.888   1.899   3.022  0.2601 -0.3147 -0.2902
  110POPC   C1D 5687   2.856   1.857   2.878 -1.0493 -0.6052  0.0774
  110POPC   C1E 5688   2.749   1.936   2.802 -0.1040  0.1752 -0.4524
  110POPC   C1F 5689   2.733   1.895   2.656 -0.5520 -0.0472 -0.3430
  110POPC   C1G 5690   2.607   1.963   2.601 -0.6618  0.3344  0.3697
  110POPC   C1H 5691   2.572   1.902   2.465  0.0042  0.1997  0.2540
  110POPC   C1I 5692   2.433   1.939   2.413  0.1169  0.0807 -0.1366
  110POPC   C1J 5693   2.366   1.869   2.323 -0.0426  0.0286  0.0230
  110POPC   C1K 5694   2.409   1.732   2.269  0.1009 -0.0106  0.2377
  110POPC   C1L 5695   2.365   1.718   2.124  0.3153  0.4441  0.1279
  110POPC   C1M 5696   2.478   1.685   2.026  0.3311 -0.2351  0.3680
  110POPC   C1N 5697   2.432   1.714   1.883  0.3603 -0.3412  0.3371
  110POPC   C1O 5698   2.539   1.656   1.791  0.0196 -0.0778 -0.2304
  110POPC   C1P 5699   2.553   1.711   1.649 -0.6874 -0.2235 -0.3583
  110POPC   C1Q 5700   2.674   1.633   1.597 -0.2847  0.2089 -0.0845
  110POPC   C1R 5701   2.717   1.696   1.464 -0.4625  0.1508 -0.1712
  110POPC    CE 5702   3.338   1.920   3.351  0.3938  0.2245 -0.0228
  110POPC    OG 5703   3.436   1.834   3.294 -0.0439 -0.1751 -0.1757
  110POPC   C2A 5704   3.554   1.891   3.273  0.1488 -0.2084  0.7716
  110POPC    OH 5705   3.606   1.968   3.354 -0.1760  0.4357  0.3718
  110POPC   C2B 5706   3.627   1.824   3.163 -0.3137  0.4136  0.0774
  110POPC   C2C 5707   3.631   1.907   3.035  0.1192  0.4791  0.1332
  110POPC   C2D 5708   3.696   1.819   2.927  0.0869  0.0705  0.4435
  110POPC   C2E 5709   3.677   1.891   2.793  0.2298 -0.2620  0.2459
  110POPC   C2F 5710   3.764   1.817   2.691  0.0230  0.0111 -0.1287
  110POPC   C2G 5711   3.773   1.912   2.571 -0.6696 -0.0048 -0.1952
  110POPC   C2H 5712   3.829   1.837   2.450 -0.3013  0.3531 -0.2504
  110POPC   C2I 5713   3.817   1.923   2.324 -0.1707  0.8248  0.0571
  110POPC   C2J 5714   3.863   1.854   2.195  0.3242  0.0448  0.6356
  110POPC   C2K 5715   3.878   1.949   2.076  0.1139 -0.2454  0.3745
  110POPC   C2L 5716   3.972   1.884   1.974  0.2177  0.8460 -0.2392
  110POPC   C2M 5717   3.908   1.770   1.895  0.3400  0.1784  0.6099
  110POPC   C2N 5718   4.000   1.715   1.785 -0.3084  0.2652  0.0211
  110POPC   C2O 5719   3.922   1.635   1.681 -0.2820 -0.3253  0.4522
  110POPC   C2P 5720   4.010   1.588   1.564 -0.2478  0.3799  0.1894
  111POPC   CN1 5721   1.921   0.653   3.318  0.5191 -0.2902 -0.4636
  111POPC   CN2 5722   2.061   0.470   3.369 -0.0682  0.1592  0.4815
  111POPC   CN3 5723   1.835   0.426   3.309 -0.2762 -0.3687 -0.1617
  111POPC   NTM 5724   1.923   0.520   3.381 -0.2871 -0.2378 -0.3179
  111POPC    CA 5725   1.883   0.526   3.522  0.3502 -0.0055 -0.1467
  111POPC    CB 5726   1.771   0.619   3.569  0.4534  0.1254 -0.1575
  111POPC    OA 5727   1.652   0.595   3.493  0.1807 -0.3559  0.4116
  111POPC     P 5728   1.547   0.716   3.504  0.0596 -0.4306  0.0934
  111POPC    OB 5729   1.602   0.824   3.591  0.4222 -0.2173 -0.3970
  111POPC    OC 5730   1.412   0.659   3.517  0.1808 -0.7066  0.1431
  111POPC    OD 5731   1.564   0.775   3.356  0.0653 -0.0900  0.2282
  111POPC    CC 5732   1.536   0.684   3.249  0.3047 -0.3215  0.3646
  111POPC    CD 5733   1.553   0.737   3.107  0.3040  0.4609  0.6548
  111POPC    OE 5734   1.682   0.769   3.054  0.2351  0.5126  0.5182
  111POPC   C1A 5735   1.754   0.682   2.984  0.3289  0.3251  0.8455
  111POPC    OF 5736   1.756   0.561   3.005 -0.1166  0.1523 -0.0495
  111POPC   C1B 5737   1.848   0.749   2.891  0.0966 -0.1530  0.2580
  111POPC   C1C 5738   1.887   0.667   2.767  0.2395 -0.2976  0.3983
  111POPC   C1D 5739   1.976   0.730   2.660 -0.6752 -0.0874 -0.2473
  111POPC   C1E 5740   1.889   0.824   2.575 -0.4647 -0.0305 -0.3986
  111POPC   C1F 5741   1.972   0.911   2.480  0.0327 -0.8536 -0.7386
  111POPC   C1G 5742   1.887   0.993   2.383 -0.3726 -0.0243  0.2948
  111POPC   C1H 5743   1.959   1.087   2.287 -0.6182  0.2360  0.3647
  111POPC   C1I 5744   2.011   1.215   2.353 -0.2919  0.3528 -0.1091
  111POPC   C1J 5745   2.013   1.332   2.291 -0.0502  0.4175  0.0195
  111POPC   C1K 5746   1.970   1.358   2.146  0.1819 -0.3178 -0.1833
  111POPC   C1L 5747   2.035   1.486   2.094  0.4525 -0.2526  0.3023
  111POPC   C1M 5748   1.997   1.512   1.948  0.1217 -0.3462  0.3699
  111POPC   C1N 5749   1.850   1.537   1.916  0.2314 -0.2665 -0.0855
  111POPC   C1O 5750   1.789   1.501   1.781 -0.3937 -0.3494  0.2155
  111POPC   C1P 5751   1.786   1.350   1.761  0.4324 -0.3064 -0.2535
  111POPC   C1Q 5752   1.677   1.288   1.848  0.1311  0.6484  0.0539
  111POPC   C1R 5753   1.679   1.139   1.812 -0.3869  0.7538 -0.4241
  111POPC    CE 5754   1.457   0.856   3.115 -0.2530  0.0582  0.0400
  111POPC    OG 5755   1.408   0.873   2.982  0.1573 -0.3541 -0.1655
  111POPC   C2A 5756   1.460   0.954   2.891  0.1625 -0.2369 -0.0580
  111POPC    OH 5757   1.561   1.022   2.904  0.0993 -0.1636  0.0536
  111POPC   C2B 5758   1.377   0.934   2.770 -0.2285  0.4584  0.0933
  111POPC   C2C 5759   1.426   0.825   2.675 -0.2846  0.1777  0.3880
  111POPC   C2D 5760   1.321   0.812   2.564  0.1227 -0.9139  0.1144
  111POPC   C2E 5761   1.328   0.672   2.503  0.0234 -0.8417 -0.0617
  111POPC   C2F 5762   1.241   0.649   2.379 -0.2876 -0.3097  0.0525
  111POPC   C2G 5763   1.298   0.716   2.254  0.5564 -0.0269  0.5763
  111POPC   C2H 5764   1.446   0.689   2.226  0.3413 -0.1922 -0.4586
  111POPC   C2I 5765   1.492   0.726   2.085  0.0477  0.4439 -0.3866
  111POPC   C2J 5766   1.633   0.671   2.066 -0.0442 -0.1198  0.5333
  111POPC   C2K 5767   1.743   0.757   2.129 -0.0874  0.0700  0.3496
  111POPC   C2L 5768   1.874   0.737   2.053 -0.4853 -0.1666 -0.2827
  111POPC   C2M 5769   1.866   0.807   1.917 -0.6451 -0.2830 -0.3331
  111POPC   C2N 5770   1.986   0.797   1.822 -0.3362  0.0362  0.0193
  111POPC   C2O 5771   1.949   0.850   1.683  0.1296 -0.3784 -0.2674
  111POPC   C2P 5772   2.057   0.819   1.580 -0.2292  0.3119 -0.8589
  112POPC   CN1 5773   2.170   1.535   3.693  0.1703  0.2933  0.8383
  112POPC   CN2 5774   2.258   1.399   3.864  0.2718 -0.4892 -0.4896
  112POPC   CN3 5775   2.227   1.307   3.644 -0.2743 -0.5406  0.4945
  112POPC   NTM 5776   2.172   1.397   3.746 -0.4006 -0.0457 -0.0117
  112POPC    CA 5777   2.043   1.349   3.799 -0.1371 -1.1462 -0.3511
  112POPC    CB 5778   1.921   1.355   3.707  0.1007  0.2606 -0.6039
  112POPC    OA 5779   1.865   1.479   3.665  0.2144  0.4018 -0.3428
  112POPC     P 5780   1.792   1.471   3.521 -0.2171  0.0673 -0.1062
  112POPC    OB 5781   1.704   1.589   3.500 -0.3192 -0.0648 -0.4140
  112POPC    OC 5782   1.739   1.333   3.522  0.1272 -0.0646 -0.0575
  112POPC    OD 5783   1.926   1.488   3.434 -0.0701  0.1328  0.1313
  112POPC    CC 5784   1.956   1.627   3.422 -0.4751  0.1779 -0.3583
  112POPC    CD 5785   2.080   1.657   3.337 -0.1668  0.0375  0.0374
  112POPC    OE 5786   2.126   1.793   3.335  0.4306 -0.1657 -0.1448
  112POPC   C1A 5787   2.209   1.838   3.428  0.4636 -0.5510  0.0142
  112POPC    OF 5788   2.251   1.759   3.512  0.6395 -0.2527  0.2087
  112POPC   C1B 5789   2.235   1.983   3.418 -0.0121 -0.4795 -0.2184
  112POPC   C1C 5790   2.116   2.065   3.468  0.3663  0.1448 -0.3233
  112POPC   C1D 5791   2.130   2.214   3.438  0.4163  0.1677 -0.1877
  112POPC   C1E 5792   2.076   2.234   3.297 -0.1956  0.2527  0.0564
  112POPC   C1F 5793   2.086   2.377   3.243  0.3497  0.1928 -0.0007
  112POPC   C1G 5794   2.012   2.386   3.110  0.1838 -0.0419  0.0748
  112POPC   C1H 5795   2.091   2.309   3.004  0.3251  0.7132 -0.3775
  112POPC   C1I 5796   2.030   2.317   2.864 -0.1751 -0.7106 -0.2545
  112POPC   C1J 5797   2.114   2.324   2.761  0.0074  0.1577 -0.0547
  112POPC   C1K 5798   2.261   2.354   2.789 -0.0839  0.6838 -0.1317
  112POPC   C1L 5799   2.334   2.413   2.668  0.0119  0.0621 -0.3836
  112POPC   C1M 5800   2.478   2.433   2.716 -0.1368  0.3355 -0.0451
  112POPC   C1N 5801   2.567   2.426   2.592  0.4086  0.4726  0.3338
  112POPC   C1O 5802   2.709   2.374   2.615  0.3986  0.1461 -0.3107
  112POPC   C1P 5803   2.790   2.400   2.488  0.2532 -0.0532 -0.4462
  112POPC   C1Q 5804   2.941   2.388   2.510  0.1593 -0.2017  0.1513
  112POPC   C1R 5805   2.979   2.244   2.547 -0.4654 -0.2501  0.6038
  112POPC    CE 5806   2.046   1.607   3.196 -0.0117 -0.6378  0.2352
  112POPC    OG 5807   1.929   1.653   3.127  0.3176 -0.3547 -0.1423
  112POPC   C2A 5808   1.871   1.584   3.030 -0.3790  0.2255 -0.1471
  112POPC    OH 5809   1.918   1.480   2.984  0.0199  0.2791  0.1428
  112POPC   C2B 5810   1.741   1.650   3.001 -0.2606  0.5538  0.0651
  112POPC   C2C 5811   1.635   1.568   2.927  0.0435  0.6226 -0.4516
  112POPC   C2D 5812   1.498   1.636   2.919 -0.3328 -0.0633  0.0967
  112POPC   C2E 5813   1.509   1.776   2.860 -0.0935 -0.1603 -0.0924
  112POPC   C2F 5814   1.381   1.859   2.878  0.1048  0.2147 -0.3976
  112POPC   C2G 5815   1.261   1.795   2.808  0.2479 -0.4373 -0.0566
  112POPC   C2H 5816   1.267   1.810   2.656  0.5574  0.3832  0.0287
  112POPC   C2I 5817   1.135   1.760   2.598  0.3174  0.8944  0.1297
  112POPC   C2J 5818   1.121   1.813   2.455 -0.1231  0.0263 -0.1594
  112POPC   C2K 5819   0.989   1.815   2.377 -0.0751  0.0939 -0.2394
  112POPC   C2L 5820   0.889   1.910   2.443 -0.1213  0.2132 -0.4789
  112POPC   C2M 5821   0.747   1.866   2.407 -0.0890 -0.0697 -0.2666
  112POPC   C2N 5822   0.627   1.957   2.437 -0.2179 -0.2738 -0.1594
  112POPC   C2O 5823   0.505   1.884   2.381 -0.1708 -0.1933 -0.3669
  112POPC   C2P 5824   0.383   1.975   2.399  0.4092  0.5748 -0.2511
  113POPC   CN1 5825   3.687   4.884   0.183 -0.1353  0.1216  0.5945
  113POPC   CN2 5826   3.741   5.032   3.978 -0.3873 -0.1363  0.0658
  113POPC   CN3 5827   3.863   4.835   0.034  0.0512  0.6936  0.3996
  113POPC   NTM 5828   3.790   4.946   0.098 -0.3837  0.3678  0.4709
  113POPC    CA 5829   3.884   5.022   0.182  0.2547  0.3506 -0.2175
  113POPC    CB 5830   4.002   5.115   0.157 -0.0752  0.5181 -1.1942
  113POPC    OA 5831   4.110   5.066   0.077  0.2142  0.2912 -0.6678
  113POPC     P 5832   4.219   5.185   0.069  0.1982  0.3526  0.0155
  113POPC    OB 5833   4.326   5.148   0.165  0.4066 -0.2401 -0.4429
  113POPC    OC 5834   4.152   5.317   0.068  0.2122  0.3583 -0.1163
  113POPC    OD 5835   4.280   5.155   3.912  0.1577 -0.0996  0.0896
  113POPC    CC 5836   4.191   5.212   3.815  0.2332 -0.1645 -0.0173
  113POPC    CD 5837   4.191   5.149   3.675 -0.2459 -0.3636  0.0712
  113POPC    OE 5838   4.165   5.009   3.664 -0.5661 -0.2726 -0.3367
  113POPC   C1A 5839   4.045   4.957   3.685  0.0085 -1.3447  0.4052
  113POPC    OF 5840   3.977   5.002   3.777  0.1342 -0.2039 -0.0379
  113POPC   C1B 5841   4.025   4.832   3.607 -0.2069 -0.5410 -0.8658
  113POPC   C1C 5842   3.993   4.716   3.702 -0.4245  0.2011 -0.0121
  113POPC   C1D 5843   3.960   4.585   3.630  0.4122  0.0780 -0.1838
  113POPC   C1E 5844   3.828   4.599   3.553  0.3305  0.5194  0.0344
  113POPC   C1F 5845   3.812   4.499   3.439  0.4034  0.1950  0.3068
  113POPC   C1G 5846   3.895   4.548   3.320  0.6605 -0.3236  0.2684
  113POPC   C1H 5847   3.905   4.455   3.199 -0.1108 -0.1813  0.0925
  113POPC   C1I 5848   4.028   4.479   3.111 -0.5752  0.3125 -0.4286
  113POPC   C1J 5849   4.042   4.404   3.002 -0.4506  0.2624 -0.3775
  113POPC   C1K 5850   3.939   4.296   2.969  0.0072 -0.2258 -0.2213
  113POPC   C1L 5851   3.944   4.244   2.826  0.1908  0.0965 -0.3328
  113POPC   C1M 5852   4.081   4.195   2.777  0.3474  0.1793  0.0227
  113POPC   C1N 5853   4.089   4.148   2.632  0.0278  0.7737 -0.1935
  113POPC   C1O 5854   4.238   4.116   2.614 -0.3104 -1.0627  0.0590
  113POPC   C1P 5855   4.263   4.101   2.464 -0.1276 -0.2226 -0.0005
  113POPC   C1Q 5856   4.409   4.108   2.418 -0.1571 -0.0135 -0.0597
  113POPC   C1R 5857   4.504   4.007   2.483 -0.2962  0.3756  0.7654
  113POPC    CE 5858   4.323   5.195   3.613 -0.3481  0.2198  0.2762
  113POPC    OG 5859   4.330   5.325   3.555  0.5893  0.2081  0.3466
  113POPC   C2A 5860   4.450   5.366   3.514  0.2369  0.5009 -0.4154
  113POPC    OH 5861   4.551   5.297   3.518 -0.1941 -0.1117  0.1826
  113POPC   C2B 5862   4.428   5.495   3.445 -0.2556  0.4658 -0.3273
  113POPC   C2C 5863   4.445   5.457   3.298  0.3322 -0.1864 -0.0961
  113POPC   C2D 5864   4.435   5.578   3.204 -0.3614 -0.2181 -0.0665
  113POPC   C2E 5865   4.441   5.560   3.053 -0.1855 -0.2735 -0.0527
  113POPC   C2F 5866   4.311   5.505   2.994 -0.3578 -0.2645  0.3143
  113POPC   C2G 5867   4.311   5.512   2.841  0.3196 -0.0744  0.3194
  113POPC   C2H 5868   4.302   5.651   2.776 -0.3666 -0.3757 -0.2420
  113POPC   C2I 5869   4.298   5.626   2.625 -0.0671  0.2433 -0.3537
  113POPC   C2J 5870   4.302   5.759   2.550 -0.2381  0.3725 -0.1327
  113POPC   C2K 5871   4.287   5.733   2.400 -0.7560 -0.2053  0.0129
  113POPC   C2L 5872   4.290   5.871   2.335  0.1721  0.0229  0.5203
  113POPC   C2M 5873   4.307   5.864   2.183 -0.1919  0.1311  0.4739
  113POPC   C2N 5874   4.204   5.777   2.110  0.2139  0.2865 -0.2925
  113POPC   C2O 5875   4.195   5.813   1.961 -0.0434  0.5573 -0.2142
  113POPC   C2P 5876   4.323   5.773   1.886 -0.0184 -0.2792  0.2530
  114POPC   CN1 5877   0.839   0.162   3.356  0.1858  0.2821  0.1984
  114POPC   CN2 5878   1.037   0.068   3.250  0.2634  0.1220  0.0893
  114POPC   CN3 5879   0.856   6.225   3.292  0.3082 -0.2268 -0.1149
  114POPC   NTM 5880   0.927   0.045   3.344 -0.0974  0.1196 -0.3314
  114POPC    CA 5881   0.975   0.004   3.477 -0.4747  0.5433 -0.0608
  114POPC    CB 5882   1.078   0.084   3.556 -0.3556  0.7059 -0.3827
  114POPC    OA 5883   1.201   0.105   3.486 -0.0038 -0.1082 -0.0186
  114POPC     P 5884   1.310   0.173   3.583  0.1320 -0.1308 -0.1532
  114POPC    OB 5885   1.450   0.184   3.536  0.1129 -0.4684 -0.2932
  114POPC    OC 5886   1.284   0.130   3.722  0.1684 -0.5264 -0.2657
  114POPC    OD 5887   1.250   0.320   3.558  0.1281 -0.0243  0.4743
  114POPC    CC 5888   1.292   0.394   3.444 -0.2012  0.4803  0.6724
  114POPC    CD 5889   1.168   0.454   3.379  0.0062  0.2565  0.0615
  114POPC    OE 5890   1.183   0.508   3.247 -0.3771  0.1475 -0.0264
  114POPC   C1A 5891   1.109   0.451   3.151  0.1594 -0.6514  0.0282
  114POPC    OF 5892   1.032   0.357   3.172 -0.0945 -0.5365 -0.3829
  114POPC   C1B 5893   1.154   0.497   3.018 -0.0559 -0.0908  0.1493
  114POPC   C1C 5894   1.209   0.379   2.938  0.0134 -0.1512  0.2851
  114POPC   C1D 5895   1.112   0.266   2.903  0.0987 -0.1182 -0.0686
  114POPC   C1E 5896   0.993   0.309   2.817 -0.2828 -0.0762  0.4753
  114POPC   C1F 5897   1.025   0.340   2.671 -0.7207  0.0760  0.4093
  114POPC   C1G 5898   1.063   0.226   2.577  0.2098  0.1736  0.6584
  114POPC   C1H 5899   0.943   0.136   2.547  0.7262 -0.2009 -0.3256
  114POPC   C1I 5900   0.975   6.284   2.532 -0.2117 -0.4362 -0.0661
  114POPC   C1J 5901   0.916   6.200   2.447 -0.6538 -0.2479  0.0524
  114POPC   C1K 5902   0.795   6.253   2.369 -0.8388  0.3347  0.7191
  114POPC   C1L 5903   0.710   6.140   2.310 -0.0231  0.4018 -0.6313
  114POPC   C1M 5904   0.568   6.182   2.274 -0.1646  0.3222 -0.1687
  114POPC   C1N 5905   0.506   6.258   2.393 -0.2052  0.1330 -0.0693
  114POPC   C1O 5906   0.471   6.181   2.521 -0.7649  0.3169 -0.1109
  114POPC   C1P 5907   0.324   6.149   2.550 -0.4978 -0.4437  0.4219
  114POPC   C1Q 5908   0.253   6.274   2.604  0.2024  0.2641 -0.2626
  114POPC   C1R 5909   0.109   6.228   2.629  0.3450 -0.1251 -0.1514
  114POPC    CE 5910   1.107   0.554   3.477 -0.5244 -0.0607  0.0591
  114POPC    OG 5911   0.987   0.505   3.539 -0.6020  0.2957  0.1930
  114POPC   C2A 5912   0.956   0.545   3.662  0.3907  0.0324  0.5403
  114POPC    OH 5913   1.023   0.628   3.723  0.4845  0.1790  0.2434
  114POPC   C2B 5914   0.837   0.471   3.710  0.0341 -0.1330 -0.5596
  114POPC   C2C 5915   0.716   0.553   3.666 -0.2812 -0.2359  0.1113
  114POPC   C2D 5916   0.588   0.469   3.663 -0.6819  0.3766 -0.3672
  114POPC   C2E 5917   0.585   0.368   3.549 -0.3415 -0.0716  0.0146
  114POPC   C2F 5918   0.507   0.242   3.591 -0.3434 -0.1227 -0.1400
  114POPC   C2G 5919   0.503   0.157   3.464 -0.1109 -0.1069 -0.1597
  114POPC   C2H 5920   0.412   0.034   3.475  0.2998 -0.4036 -0.0548
  114POPC   C2I 5921   0.478   6.221   3.392  0.3888 -0.3124 -0.1053
  114POPC   C2J 5922   0.375   6.115   3.352 -0.1147  0.0131  0.3078
  114POPC   C2K 5923   0.294   6.169   3.234  0.1770 -0.2850 -0.0336
  114POPC   C2L 5924   0.198   6.059   3.189  0.3755 -0.5058  0.0821
  114POPC   C2M 5925   0.112   6.116   3.076  0.2861  0.0886  0.4461
  114POPC   C2N 5926   0.048   5.983   3.037  0.3559  0.2240 -0.1509
  114POPC   C2O 5927   6.244   5.976   2.902  0.6153 -0.1315 -0.2716
  114POPC   C2P 5928   6.152   5.855   2.887 -0.0090  0.3297 -0.2085
  115POPC   CN1 5929   4.807   1.065   3.562 -0.1933  0.0661  0.5365
  115POPC   CN2 5930   5.049   1.063   3.566  0.1333 -0.3823 -0.6999
  115POPC   CN3 5931   4.941   0.887   3.463 -0.3544  0.0360  0.0255
  115POPC   NTM 5932   4.927   0.981   3.575 -0.1286  0.0735  0.0219
  115POPC    CA 5933   4.934   0.919   3.708  0.2395  0.1002  0.0149
  115POPC    CB 5934   4.849   0.796   3.741 -0.0872  0.3445  0.0831
  115POPC    OA 5935   4.712   0.796   3.699  0.1214  0.0438 -0.6116
  115POPC     P 5936   4.631   0.658   3.706 -0.1308  0.2292  0.1308
  115POPC    OB 5937   4.487   0.687   3.725 -0.0124  0.6350  0.4263
  115POPC    OC 5938   4.695   0.556   3.793 -0.5955  0.1604  0.4007
  115POPC    OD 5939   4.656   0.610   3.555  0.3918 -0.4241  0.4184
  115POPC    CC 5940   4.586   0.707   3.476  0.5121 -0.3917  0.3516
  115POPC    CD 5941   4.605   0.690   3.325 -0.7456  0.0011  0.1372
  115POPC    OE 5942   4.562   0.805   3.253 -0.1574  0.4840  0.5458
  115POPC   C1A 5943   4.651   0.891   3.204  0.2208  0.0079  0.3858
  115POPC    OF 5944   4.770   0.877   3.231  0.3417  0.4889  0.1103
  115POPC   C1B 5945   4.598   1.020   3.156  0.2175 -0.0627  0.2014
  115POPC   C1C 5946   4.616   1.136   3.254  0.3687 -0.0829  0.1981
  115POPC   C1D 5947   4.616   1.278   3.195  0.6153 -0.1615  0.0050
  115POPC   C1E 5948   4.473   1.332   3.193  0.5467 -0.3619 -0.5582
  115POPC   C1F 5949   4.472   1.478   3.145 -0.2310 -0.1669  0.0384
  115POPC   C1G 5950   4.330   1.533   3.131 -0.2066 -0.2240 -0.4289
  115POPC   C1H 5951   4.309   1.668   3.063 -0.0156 -0.0367 -0.1151
  115POPC   C1I 5952   4.160   1.701   3.062 -0.1474 -0.6090  0.2119
  115POPC   C1J 5953   4.103   1.682   2.943 -0.0679 -0.0455  0.0796
  115POPC   C1K 5954   4.191   1.655   2.821 -0.5922  0.0207 -0.3149
  115POPC   C1L 5955   4.190   1.765   2.715  0.9000  0.3419 -0.0168
  115POPC   C1M 5956   4.257   1.725   2.583  0.1979 -0.5894 -0.0957
  115POPC   C1N 5957   4.166   1.636   2.498 -0.5280 -0.4333  0.5092
  115POPC   C1O 5958   4.227   1.612   2.360 -0.3109  0.3409  0.4694
  115POPC   C1P 5959   4.233   1.721   2.252 -0.3398  0.0249  0.1483
  115POPC   C1Q 5960   4.339   1.695   2.146 -0.3768  0.3164  0.0404
  115POPC   C1R 5961   4.373   1.828   2.078 -0.3391  0.1766 -0.2171
  115POPC    CE 5962   4.537   0.561   3.277 -0.4064 -0.0461 -0.2211
  115POPC    OG 5963   4.583   0.522   3.148  0.1963 -0.0580 -0.0062
  115POPC   C2A 5964   4.542   0.402   3.109  0.0278  0.0053 -0.0242
  115POPC    OH 5965   4.506   0.316   3.190  0.1210  0.0531  0.0688
  115POPC   C2B 5966   4.579   0.386   2.966 -0.5064 -0.5798 -0.1006
  115POPC   C2C 5967   4.501   0.483   2.877  0.2871  0.1782  0.0224
  115POPC   C2D 5968   4.566   0.485   2.738 -0.1887 -0.5761 -0.2142
  115POPC   C2E 5969   4.534   0.620   2.673  0.0048 -0.1441  0.5776
  115POPC   C2F 5970   4.573   0.616   2.525 -0.0975 -0.0505  0.5482
  115POPC   C2G 5971   4.453   0.561   2.448 -0.5022  0.0583  1.0923
  115POPC   C2H 5972   4.476   0.567   2.297 -0.7736  0.3294  1.0610
  115POPC   C2I 5973   4.359   0.527   2.206 -0.0470  0.4177  0.0660
  115POPC   C2J 5974   4.361   0.400   2.122 -0.2167  0.2179  0.3627
  115POPC   C2K 5975   4.375   0.269   2.199  0.2893  0.1744  0.2019
  115POPC   C2L 5976   4.400   0.168   2.087 -0.6414 -0.0931  0.2207
  115POPC   C2M 5977   4.393   0.025   2.140  0.0401 -0.5185 -0.8188
  115POPC   C2N 5978   4.261   6.279   2.203  0.1149 -0.1634 -0.4158
  115POPC   C2O 5979   4.156   6.251   2.095 -0.6529  0.2825  0.2085
  115POPC   C2P 5980   4.026   6.213   2.166 -0.4881 -0.7380 -0.0260
  116POPC   CN1 5981   6.218   1.896   3.207  0.4380 -0.2676 -0.0531
  116POPC   CN2 5982   6.024   2.017   3.262  0.1166 -0.3785 -0.0454
  116POPC   CN3 5983   6.158   1.918   3.441  0.2011  0.0715 -0.2343
  116POPC   NTM 5984   6.108   1.904   3.304  0.2819 -0.3220 -0.2253
  116POPC    CA 5985   6.023   1.785   3.291 -0.2193 -0.0282  0.3262
  116POPC    CB 5986   5.904   1.755   3.382  0.0482  0.3763  0.8153
  116POPC    OA 5987   5.808   1.861   3.381 -0.1653  0.1914 -0.3177
  116POPC     P 5988   5.661   1.815   3.336 -0.2732  0.2945 -0.0736
  116POPC    OB 5989   5.583   1.941   3.334 -0.3704  0.2328 -0.1955
  116POPC    OC 5990   5.613   1.697   3.412  0.1375  0.0679 -0.1637
  116POPC    OD 5991   5.694   1.777   3.183  0.6253  0.7481  0.0059
  116POPC    CC 5992   5.705   1.891   3.098 -0.2956  0.3278 -0.6821
  116POPC    CD 5993   5.767   1.857   2.963 -0.3583  0.3718 -0.7227
  116POPC    OE 5994   5.822   1.963   2.884  0.0841  0.3577 -0.4362
  116POPC   C1A 5995   5.955   1.966   2.889  0.1084 -0.5806 -0.4009
  116POPC    OF 5996   6.017   1.902   2.974  0.3500  0.6401  0.3658
  116POPC   C1B 5997   6.020   2.052   2.789  0.1385 -0.1688 -0.0295
  116POPC   C1C 5998   5.975   2.019   2.647  0.1412 -0.5621  0.0602
  116POPC   C1D 5999   6.064   2.106   2.557 -0.0250 -0.0578  0.3801
  116POPC   C1E 6000   6.023   2.055   2.419  0.1692 -0.6016  0.5161
  116POPC   C1F 6001   6.090   2.147   2.316 -0.4758 -0.4363  0.2363
  116POPC   C1G 6002   6.095   2.078   2.180 -0.0210  0.0928 -0.0190
  116POPC   C1H 6003   6.182   1.952   2.170 -0.0386  0.0941 -0.1804
  116POPC   C1I 6004   6.176   1.887   2.031 -0.3415 -0.2019 -0.0280
  116POPC   C1J 6005   0.019   1.823   1.994 -0.2721 -0.1099  0.0197
  116POPC   C1K 6006   0.146   1.822   2.079  0.0117  0.1063 -0.3982
  116POPC   C1L 6007   0.206   1.682   2.085 -0.1102  0.0577 -0.3118
  116POPC   C1M 6008   0.325   1.664   2.180  0.2767  0.1246 -0.7798
  116POPC   C1N 6009   0.400   1.531   2.166  0.4101  0.1650 -0.4610
  116POPC   C1O 6010   0.483   1.506   2.291 -0.4146 -0.2203  0.0147
  116POPC   C1P 6011   0.525   1.359   2.294  0.2820 -0.0283 -0.3428
  116POPC   C1Q 6012   0.609   1.339   2.420  0.2800 -0.0842 -0.3503
  116POPC   C1R 6013   0.722   1.441   2.432  0.1934 -0.0551  0.2989
  116POPC    CE 6014   5.673   1.759   2.892  0.1908 -0.3238 -0.5000
  116POPC    OG 6015   5.543   1.814   2.873  0.3402  0.2019 -0.0156
  116POPC   C2A 6016   5.478   1.757   2.772 -0.1713  0.1468  0.3469
  116POPC    OH 6017   5.527   1.659   2.716 -0.0664  0.1215  0.4840
  116POPC   C2B 6018   5.339   1.806   2.755 -0.2947 -0.1790  0.3952
  116POPC   C2C 6019   5.252   1.719   2.847 -0.0692 -0.0402  0.7443
  116POPC   C2D 6020   5.109   1.747   2.801  0.3025 -0.3728 -0.6664
  116POPC   C2E 6021   5.026   1.620   2.814  0.3628 -0.3379  0.0976
  116POPC   C2F 6022   4.899   1.614   2.729 -0.0003  0.2341  0.5988
  116POPC   C2G 6023   4.810   1.493   2.761  0.7247 -0.4499  0.0556
  116POPC   C2H 6024   4.666   1.496   2.708  0.6131  0.2146  0.3883
  116POPC   C2I 6025   4.596   1.374   2.768 -0.4123  0.5610 -0.0964
  116POPC   C2J 6026   4.473   1.343   2.682 -0.1945  0.0497 -0.2302
  116POPC   C2K 6027   4.383   1.235   2.742 -0.1127  0.1923  0.1539
  116POPC   C2L 6028   4.442   1.094   2.730 -0.2550  0.1859 -0.5154
  116POPC   C2M 6029   4.440   1.039   2.587 -0.0051 -0.0330 -0.4357
  116POPC   C2N 6030   4.299   1.009   2.537 -0.2227 -0.0623  0.1874
  116POPC   C2O 6031   4.313   0.958   2.394 -0.1477 -0.2266  0.2535
  116POPC   C2P 6032   4.180   0.968   2.318  0.0940  0.0207 -0.1418
  117POPC   CN1 6033   2.884   6.133   3.702  0.1070  0.1760  0.8424
  117POPC   CN2 6034   2.908   5.895   3.701  0.0358 -0.0008 -0.3090
  117POPC   CN3 6035   2.814   5.992   3.517  0.7843  0.3724  0.0259
  117POPC   NTM 6036   2.820   6.007   3.663  0.2833  0.3203  0.0533
  117POPC    CA 6037   2.695   5.993   3.740  0.0904  0.0893 -0.3000
  117POPC    CB 6038   2.560   6.055   3.704 -0.0212  0.0815  0.1020
  117POPC    OA 6039   2.577   6.197   3.691  0.1300 -0.0054 -0.6642
  117POPC     P 6040   2.446   6.273   3.637 -0.2836 -0.1415  0.1423
  117POPC    OB 6041   2.391   0.045   3.756 -0.3339  0.5092 -0.2508
  117POPC    OC 6042   2.371   6.179   3.552 -0.2278  0.4355 -0.5597
  117POPC    OD 6043   2.521   0.086   3.546 -0.1538 -0.2680  0.0969
  117POPC    CC 6044   2.583   0.022   3.434 -0.4225  0.2464 -0.3516
  117POPC    CD 6045   2.636   0.109   3.319  0.0786  0.5487  0.1041
  117POPC    OE 6046   2.755   0.184   3.344  0.2661  0.3389 -0.1653
  117POPC   C1A 6047   2.865   0.108   3.344 -0.0810 -0.1843 -0.9176
  117POPC    OF 6048   2.860   6.292   3.393  0.0491  0.3830  0.4703
  117POPC   C1B 6049   2.991   0.183   3.322  0.0560 -0.1243  0.0242
  117POPC   C1C 6050   3.043   0.160   3.180 -0.6868  0.2768 -0.3230
  117POPC   C1D 6051   3.166   0.247   3.152 -0.3839  0.1938  0.6941
  117POPC   C1E 6052   3.136   0.327   3.026 -0.2920 -0.1163  0.4727
  117POPC   C1F 6053   3.267   0.395   2.984 -0.3593 -0.0388  0.3855
  117POPC   C1G 6054   3.242   0.459   2.848 -0.5750 -0.6232  0.1479
  117POPC   C1H 6055   3.113   0.539   2.827 -0.1461  0.1265  0.3319
  117POPC   C1I 6056   3.144   0.673   2.892  0.4025  0.0456  0.2417
  117POPC   C1J 6057   3.074   0.783   2.867  0.3219  0.0539  0.4977
  117POPC   C1K 6058   2.959   0.777   2.766  0.2989  0.0006  0.5277
  117POPC   C1L 6059   2.997   0.821   2.625 -0.5993 -0.1883  0.2172
  117POPC   C1M 6060   2.877   0.840   2.533 -0.3892  0.6225  0.1062
  117POPC   C1N 6061   2.927   0.893   2.398 -0.1150 -0.1564 -0.1039
  117POPC   C1O 6062   2.811   0.905   2.299  0.1653 -0.0733 -0.4221
  117POPC   C1P 6063   2.854   0.952   2.160  0.4279 -0.1083 -0.3533
  117POPC   C1Q 6064   2.730   0.977   2.075  0.0471  0.0573  0.2522
  117POPC   C1R 6065   2.665   0.855   2.010  0.8966 -0.2207 -0.0857
  117POPC    CE 6066   2.511   0.180   3.268 -0.1802  0.1584  0.1923
  117POPC    OG 6067   2.395   0.096   3.253  0.0566 -0.0930 -0.2510
  117POPC   C2A 6068   2.279   0.155   3.228  0.1490  0.5855  0.8218
  117POPC    OH 6069   2.266   0.275   3.202 -0.6180  0.4148  0.3678
  117POPC   C2B 6070   2.162   0.064   3.231  0.1107  0.6148  0.3438
  117POPC   C2C 6071   2.057   0.058   3.120 -0.1462  0.6913  0.5802
  117POPC   C2D 6072   1.942   6.262   3.162  0.2391 -0.0621  0.0066
  117POPC   C2E 6073   1.863   6.223   3.038 -0.5668  0.1888  0.4360
  117POPC   C2F 6074   1.756   6.113   3.043 -0.1568 -0.2178  0.3047
  117POPC   C2G 6075   1.701   6.095   2.902  0.2013 -0.1691  0.1576
  117POPC   C2H 6076   1.798   6.010   2.819  0.0361 -0.1304 -0.0761
  117POPC   C2I 6077   1.783   6.028   2.668 -0.8381  0.2304  0.0477
  117POPC   C2J 6078   1.874   5.921   2.608 -0.1303  0.4219  0.7640
  117POPC   C2K 6079   2.026   5.925   2.624 -0.0218 -0.1320 -0.0882
  117POPC   C2L 6080   2.110   5.839   2.529 -0.1025 -0.2868 -0.0197
  117POPC   C2M 6081   2.077   5.691   2.545  0.0900 -0.4668 -1.1604
  117POPC   C2N 6082   2.191   5.595   2.513  0.9541 -0.0112  0.4455
  117POPC   C2O 6083   2.156   5.446   2.518  0.2056  0.1298 -0.5260
  117POPC   C2P 6084   2.260   5.358   2.447  0.3378  0.1088 -0.3064
  118POPC   CN1 6085   4.423   3.731   3.657 -0.3344 -0.1526  1.0326
  118POPC   CN2 6086   4.616   3.601   3.619  0.1732 -0.2856  0.2002
  118POPC   CN3 6087   4.407   3.497   3.682 -0.0747 -0.2992  0.1477
  118POPC   NTM 6088   4.496   3.612   3.703  0.0237 -0.3467 -0.0042
  118POPC    CA 6089   4.543   3.627   3.842  0.1811  0.0968 -0.1021
  118POPC    CB 6090   4.451   3.664   3.958 -0.1271  0.2719 -0.4002
  118POPC    OA 6091   4.344   3.573   3.984  0.0144  0.0753 -0.5141
  118POPC     P 6092   4.212   3.653   0.041  0.2365  0.0870  0.1189
  118POPC    OB 6093   4.257   3.772   0.117 -0.6016  0.5356 -0.0799
  118POPC    OC 6094   4.099   3.565   0.078  0.1094  0.2594  0.1371
  118POPC    OD 6095   4.176   3.692   3.877 -0.2780 -0.1388  0.1810
  118POPC    CC 6096   4.072   3.790   3.874 -0.2961 -0.1525  0.3202
  118POPC    CD 6097   4.046   3.836   3.730  0.1424 -0.0027  0.2881
  118POPC    OE 6098   4.003   3.971   3.713  0.0483 -0.0692  0.0030
  118POPC   C1A 6099   4.095   4.066   3.702  0.0085 -0.0055  0.2326
  118POPC    OF 6100   4.213   4.064   3.739  0.0348  0.4262  0.1830
  118POPC   C1B 6101   4.033   4.194   3.660 -0.5047 -0.1538  0.5308
  118POPC   C1C 6102   4.017   4.199   3.508 -0.2597  0.0565  0.5127
  118POPC   C1D 6103   4.151   4.226   3.438 -0.4996 -0.1225 -0.0203
  118POPC   C1E 6104   4.182   4.098   3.361  0.1048 -0.1625  0.2836
  118POPC   C1F 6105   4.302   4.121   3.269  0.3818 -0.1381  0.6491
  118POPC   C1G 6106   4.313   4.002   3.173  0.1222  0.2413  0.1434
  118POPC   C1H 6107   4.419   4.008   3.062 -0.0350  0.2786 -0.0059
  118POPC   C1I 6108   4.380   4.102   2.948  0.0351  0.1776 -0.1139
  118POPC   C1J 6109   4.464   4.167   2.868 -0.5104  0.4130 -0.4996
  118POPC   C1K 6110   4.610   4.133   2.895 -0.5356  0.5746 -0.1558
  118POPC   C1L 6111   4.694   4.169   2.773  0.4314  0.3186  0.4169
  118POPC   C1M 6112   4.709   4.320   2.749 -0.6286  0.2674 -0.6849
  118POPC   C1N 6113   4.774   4.344   2.612 -0.0957  0.3470 -0.4227
  118POPC   C1O 6114   4.922   4.310   2.600 -0.2413 -0.6639  0.4225
  118POPC   C1P 6115   4.939   4.191   2.505  0.0912 -0.0471 -0.3113
  118POPC   C1Q 6116   4.935   4.229   2.357 -0.3190 -0.0214 -0.2940
  118POPC   C1R 6117   4.956   4.106   2.269 -0.0140 -0.2716  0.1274
  118POPC    CE 6118   3.978   3.734   3.639  0.3293  0.0113  0.1302
  118POPC    OG 6119   4.022   3.740   3.504 -0.0366  0.4930  0.0318
  118POPC   C2A 6120   4.109   3.648   3.464  0.0034  0.6138 -0.1610
  118POPC    OH 6121   4.167   3.578   3.547  0.2826  0.3045 -0.6105
  118POPC   C2B 6122   4.140   3.641   3.319  0.0014  0.0729 -0.1362
  118POPC   C2C 6123   4.288   3.602   3.307 -0.0974 -0.1993 -0.4741
  118POPC   C2D 6124   4.307   3.507   3.189  0.1551 -0.5108 -0.1841
  118POPC   C2E 6125   4.225   3.377   3.191 -0.1151 -0.3455 -0.3680
  118POPC   C2F 6126   4.233   3.312   3.053 -0.6021  0.0709 -0.5945
  118POPC   C2G 6127   4.123   3.206   3.037 -0.4583 -0.1628 -0.0351
  118POPC   C2H 6128   4.123   3.138   2.900  0.1256 -0.4264  0.0943
  118POPC   C2I 6129   4.129   3.242   2.789  0.3642 -0.2267  0.2930
  118POPC   C2J 6130   4.098   3.168   2.659  0.1234  0.5245 -0.0814
  118POPC   C2K 6131   4.081   3.262   2.539 -0.3751  0.0819 -0.3610
  118POPC   C2L 6132   4.055   3.172   2.418  0.9869 -0.5260 -0.2158
  118POPC   C2M 6133   4.048   3.238   2.280  0.0182 -0.0423  0.0559
  118POPC   C2N 6134   3.983   3.143   2.179  0.0645 -0.0974  0.0782
  118POPC   C2O 6135   3.953   3.217   2.049  0.9853 -0.0309 -0.1071
  118POPC   C2P 6136   4.035   3.173   1.928  0.5076  0.2769 -0.5511
  119POPC   CN1 6137   4.376   4.862   3.906  0.6077 -0.4027  0.0123
  119POPC   CN2 6138   4.492   4.683   0.001  0.0590  0.0790  0.6198
  119POPC   CN3 6139   4.246   4.697   0.044 -0.3308  0.2078 -0.0536
  119POPC   NTM 6140   4.374   4.767   0.029 -0.1332 -0.0758  0.2859
  119POPC    CA 6141   4.385   4.848   0.152 -0.2377  0.5958 -0.1407
  119POPC    CB 6142   4.521   4.871   0.218 -0.1109 -0.0572 -0.1579
  119POPC    OA 6143   4.631   4.922   0.142  0.0491 -0.5615 -0.2662
  119POPC     P 6144   4.767   4.949   0.224  0.0020 -0.1251 -0.3312
  119POPC    OB 6145   4.827   4.820   0.263 -0.3719 -0.3156 -0.3835
  119POPC    OC 6146   4.741   5.056   0.323  0.5325  0.3791 -0.7307
  119POPC    OD 6147   4.839   5.002   0.090 -0.0161  0.0972 -0.2535
  119POPC    CC 6148   4.929   4.910   0.027 -0.0042 -0.7378  0.9545
  119POPC    CD 6149   4.857   4.819   3.916  0.2760  0.0793 -0.0085
  119POPC    OE 6150   4.934   4.704   3.884  0.3764 -0.0862  0.8138
  119POPC   C1A 6151   4.863   4.595   3.855  0.2497  0.0398  0.6484
  119POPC    OF 6152   4.768   4.579   3.931 -0.6255 -0.2791 -0.4857
  119POPC   C1B 6153   4.950   4.505   3.776 -0.5991 -0.1703 -0.0625
  119POPC   C1C 6154   4.909   4.500   3.629 -0.6070 -0.6908 -0.0443
  119POPC   C1D 6155   4.985   4.382   3.566  0.5444  0.2850 -0.5219
  119POPC   C1E 6156   4.927   4.352   3.428  0.2150  0.1373 -0.3511
  119POPC   C1F 6157   5.015   4.250   3.354 -0.4873 -0.6370 -0.1439
  119POPC   C1G 6158   4.958   4.233   3.213 -0.2817 -0.2916 -0.2719
  119POPC   C1H 6159   5.066   4.172   3.123 -0.1803 -0.1886 -0.2195
  119POPC   C1I 6160   5.030   4.186   2.975 -0.5336  0.1825 -0.1011
  119POPC   C1J 6161   5.130   4.187   2.888 -0.4386  0.3340  0.0096
  119POPC   C1K 6162   5.277   4.171   2.928 -0.5013  0.1297  0.1564
  119POPC   C1L 6163   5.362   4.120   2.812 -0.0236 -0.0322  0.5713
  119POPC   C1M 6164   5.356   4.213   2.691 -0.1603 -0.2925  0.3757
  119POPC   C1N 6165   5.479   4.196   2.601 -0.5235  0.2355 -0.2292
  119POPC   C1O 6166   5.492   4.063   2.527  0.1662 -0.1078  0.5032
  119POPC   C1P 6167   5.374   4.024   2.438  0.3443  0.1212  0.1633
  119POPC   C1Q 6168   5.414   3.913   2.341  0.2124  0.0198  0.2237
  119POPC   C1R 6169   5.294   3.868   2.257 -0.3792  0.3690  0.8695
  119POPC    CE 6170   4.826   4.923   3.808  0.4008  0.0548 -0.0674
  119POPC    OG 6171   4.757   4.873   3.693 -0.3576  0.3424  0.2558
  119POPC   C2A 6172   4.684   4.960   3.623 -0.2415 -0.0498 -0.3661
  119POPC    OH 6173   4.611   5.032   3.691  0.1547 -0.1393  0.1627
  119POPC   C2B 6174   4.652   4.911   3.488 -0.1741 -0.6053 -0.1824
  119POPC   C2C 6175   4.645   5.017   3.378 -1.6130  0.1557  0.6048
  119POPC   C2D 6176   4.606   4.955   3.243 -0.4322  0.1162  0.2702
  119POPC   C2E 6177   4.555   5.063   3.147  0.9432  0.0578 -0.5635
  119POPC   C2F 6178   4.554   5.017   3.001 -0.3259 -0.6012 -0.3641
  119POPC   C2G 6179   4.466   5.104   2.911 -0.2234  0.1039  0.2072
  119POPC   C2H 6180   4.476   5.049   2.769  0.1131  0.3544  0.1312
  119POPC   C2I 6181   4.380   5.126   2.678  0.2706  0.3184 -0.0675
  119POPC   C2J 6182   4.388   5.082   2.532  0.2657 -0.1444  0.0693
  119POPC   C2K 6183   4.339   4.940   2.505 -0.2630  0.0295  0.1092
  119POPC   C2L 6184   4.186   4.937   2.513 -0.2876  0.1423 -0.2906
  119POPC   C2M 6185   4.128   4.799   2.480 -0.2265 -0.0251  0.2998
  119POPC   C2N 6186   4.183   4.742   2.350 -0.2583  0.5512  0.0320
  119POPC   C2O 6187   4.106   4.618   2.305 -0.2736  0.2863  0.7754
  119POPC   C2P 6188   4.142   4.491   2.383  0.5417  0.0940  0.1098
  120POPC   CN1 6189   2.866   2.646   3.670  0.4494 -0.1288 -0.0074
  120POPC   CN2 6190   2.888   2.647   3.918 -0.0738  0.0656 -0.2822
  120POPC   CN3 6191   2.707   2.757   3.803 -0.3877 -0.0417 -0.7486
  120POPC   NTM 6192   2.849   2.719   3.797 -0.3367  0.0499 -0.2074
  120POPC    CA 6193   2.941   2.833   3.785 -0.6545  0.3319  0.0341
  120POPC    CB 6194   2.921   2.967   3.856  0.1326  0.5869 -0.2163
  120POPC    OA 6195   2.794   3.030   3.835 -0.0835  0.1180 -0.3057
  120POPC     P 6196   2.777   3.104   3.693 -0.0702  0.0727 -0.3309
  120POPC    OB 6197   2.899   3.182   3.660 -0.1082  0.3078  0.0805
  120POPC    OC 6198   2.644   3.163   3.716 -0.1140 -0.0946 -0.1486
  120POPC    OD 6199   2.749   2.981   3.593 -0.4740  0.1048 -0.2552
  120POPC    CC 6200   2.780   3.027   3.462  0.2972 -0.1193 -0.1567
  120POPC    CD 6201   2.759   2.919   3.356  0.5329 -0.2152 -0.1057
  120POPC    OE 6202   2.863   2.906   3.259  0.6569  0.3902 -0.0573
  120POPC   C1A 6203   2.979   2.852   3.298  0.5381  0.2133  0.0509
  120POPC    OF 6204   2.997   2.815   3.414  0.3104  0.6247  0.2173
  120POPC   C1B 6205   3.068   2.828   3.181 -0.3456 -0.5977 -0.4790
  120POPC   C1C 6206   3.184   2.736   3.218  0.1083  0.1558  0.0115
  120POPC   C1D 6207   3.237   2.676   3.088 -0.1860  0.0170 -0.0460
  120POPC   C1E 6208   3.356   2.591   3.135 -0.2125 -0.2118 -0.3895
  120POPC   C1F 6209   3.444   2.556   3.015  0.2433  0.4833 -0.2622
  120POPC   C1G 6210   3.535   2.434   3.028 -0.8032 -0.2691  0.1861
  120POPC   C1H 6211   3.622   2.427   2.902  0.1790 -0.3032  0.8521
  120POPC   C1I 6212   3.682   2.286   2.889 -0.2556 -0.4000 -0.2320
  120POPC   C1J 6213   3.704   2.245   2.765 -0.0835 -0.6238 -0.1269
  120POPC   C1K 6214   3.684   2.341   2.648  0.0030 -0.0130  0.3548
  120POPC   C1L 6215   3.608   2.274   2.533 -0.1742  0.7355  0.0267
  120POPC   C1M 6216   3.603   2.358   2.406 -0.3952  0.2833 -0.2655
  120POPC   C1N 6217   3.579   2.284   2.274  0.1823 -0.7482  0.1952
  120POPC   C1O 6218   3.451   2.200   2.263 -0.4606  0.2950 -0.3865
  120POPC   C1P 6219   3.498   2.108   2.151 -0.1697 -0.1746  0.1175
  120POPC   C1Q 6220   3.403   1.988   2.137 -0.4231  0.0396 -0.0193
  120POPC   C1R 6221   3.415   1.898   2.260  0.4739  0.2785  0.0756
  120POPC    CE 6222   2.624   2.960   3.296  0.4529 -0.2593  0.0440
  120POPC    OG 6223   2.609   3.090   3.239 -0.1565 -0.4374 -0.2131
  120POPC   C2A 6224   2.486   3.130   3.210 -0.0725 -0.5047 -0.6738
  120POPC    OH 6225   2.393   3.071   3.265  0.0324 -0.4623 -0.4517
  120POPC   C2B 6226   2.463   3.253   3.130  0.0956  0.1747  0.3086
  120POPC   C2C 6227   2.453   3.214   2.983 -0.3661  0.1335  0.3478
  120POPC   C2D 6228   2.444   3.337   2.893  0.8024 -0.1688 -0.2129
  120POPC   C2E 6229   2.479   3.314   2.746 -0.0040 -0.3063 -0.3930
  120POPC   C2F 6230   2.468   3.446   2.669 -0.4901  0.0634  0.3014
  120POPC   C2G 6231   2.527   3.573   2.732 -0.1110  0.1336 -0.1852
  120POPC   C2H 6232   2.675   3.587   2.697 -0.1731 -0.0628 -0.5405
  120POPC   C2I 6233   2.733   3.703   2.779  0.3249 -0.2559 -0.6195
  120POPC   C2J 6234   2.751   3.662   2.926  0.0520  0.1012 -0.4851
  120POPC   C2K 6235   2.839   3.770   2.989  0.3784 -0.4035 -0.0689
  120POPC   C2L 6236   2.867   3.726   3.133  0.1013  0.3362  0.2181
  120POPC   C2M 6237   2.744   3.680   3.211  0.5943 -0.6031  0.4562
  120POPC   C2N 6238   2.781   3.628   3.350 -0.1952  0.2182  0.9809
  120POPC   C2O 6239   2.685   3.514   3.386  0.0656 -0.4050 -0.2583
  120POPC   C2P 6240   2.711   3.466   3.529 -0.5682 -0.3562 -0.1228
  121POPC   CN1 6241   6.229   4.727   3.588 -0.2064  0.6434  0.8274
  121POPC   CN2 6242   0.178   4.654   3.614  0.0987  0.4536  0.3101
  121POPC   CN3 6243   0.010   4.503   3.542  0.3638  0.3920 -0.6154
  121POPC   NTM 6244   0.039   4.612   3.636  0.0359  0.2848 -0.3898
  121POPC    CA 6245   6.258   4.568   3.768  0.1383 -0.2271 -0.5216
  121POPC    CB 6246   0.076   4.469   3.849  0.0787  0.0203 -0.1557
  121POPC    OA 6247   0.146   4.363   3.784 -0.3277 -0.2706 -0.1211
  121POPC     P 6248   0.168   4.240   3.886 -0.1228  0.0686  0.2421
  121POPC    OB 6249   0.034   4.189   3.921 -0.2850 -0.1042 -0.6167
  121POPC    OC 6250   0.260   4.303   3.984  0.1534 -0.3185  0.2325
  121POPC    OD 6251   0.245   4.136   3.791 -0.2827  0.0250  0.1604
  121POPC    CC 6252   0.160   4.050   3.716  0.2343  0.0456 -0.4574
  121POPC    CD 6253   0.223   4.000   3.586  0.4904 -0.0263 -0.3052
  121POPC    OE 6254   0.128   3.969   3.483  0.0963  0.2886 -0.0396
  121POPC   C1A 6255   0.067   4.062   3.410 -0.1497 -0.0524 -0.2663
  121POPC    OF 6256   0.048   4.175   3.453 -0.2062 -0.4690  0.8293
  121POPC   C1B 6257   6.267   4.012   3.287  0.1279 -0.5599 -0.2173
  121POPC   C1C 6258   6.129   3.951   3.312 -0.1475  0.2658  0.3355
  121POPC   C1D 6259   6.107   3.857   3.193  0.0018  0.9315 -0.2239
  121POPC   C1E 6260   5.975   3.781   3.188  0.5665 -0.1118  0.2387
  121POPC   C1F 6261   5.967   3.691   3.065  0.1371  0.1445  0.0757
  121POPC   C1G 6262   6.082   3.590   3.056  0.1948  0.2291 -0.1543
  121POPC   C1H 6263   6.090   3.528   2.917 -0.3302  0.3308 -0.2353
  121POPC   C1I 6264   6.171   3.400   2.941 -0.2263  0.4567  0.0816
  121POPC   C1J 6265   6.148   3.297   2.860 -0.0826 -0.0334  0.6520
  121POPC   C1K 6266   6.031   3.312   2.763 -0.0833 -0.2346  0.6215
  121POPC   C1L 6267   5.941   3.191   2.739  0.0104 -0.1397 -0.2315
  121POPC   C1M 6268   5.866   3.197   2.605 -0.1438  0.0489 -0.1377
  121POPC   C1N 6269   5.823   3.055   2.570 -0.0250  0.0463 -0.2730
  121POPC   C1O 6270   5.760   3.027   2.434 -0.4501 -0.2135 -0.0244
  121POPC   C1P 6271   5.842   3.070   2.312  0.0182 -0.4868  0.1893
  121POPC   C1Q 6272   5.974   2.992   2.309  0.4398  0.2077  0.4826
  121POPC   C1R 6273   6.069   3.048   2.203  0.3899  0.0974  0.3798
  121POPC    CE 6274   0.328   3.897   3.629  0.6438  0.5301  0.6792
  121POPC    OG 6275   0.421   3.862   3.526  0.0535  0.1585  0.2644
  121POPC   C2A 6276   0.509   3.952   3.484 -0.5609  0.4075 -0.5286
  121POPC    OH 6277   0.556   4.035   3.563  0.1457 -0.3765 -0.1105
  121POPC   C2B 6278   0.556   3.910   3.350  0.1985 -0.1230 -0.1026
  121POPC   C2C 6279   0.489   4.007   3.253 -0.5859  0.1474  0.6905
  121POPC   C2D 6280   0.524   3.974   3.107 -0.5690  0.3571  0.6464
  121POPC   C2E 6281   0.433   4.033   2.999 -0.0670  0.3453  0.2177
  121POPC   C2F 6282   0.508   4.025   2.866 -0.2962 -0.2915  0.1238
  121POPC   C2G 6283   0.428   4.061   2.740  0.4271 -0.3652 -0.3672
  121POPC   C2H 6284   0.510   4.075   2.612  0.0736  0.1484 -0.5399
  121POPC   C2I 6285   0.421   4.123   2.498 -0.3348  0.2945 -0.1628
  121POPC   C2J 6286   0.312   4.020   2.467 -0.0586  0.0120 -0.1988
  121POPC   C2K 6287   0.256   4.055   2.329  0.3240  0.0867 -0.3367
  121POPC   C2L 6288   0.149   3.954   2.286  0.1743  0.1497 -0.1160
  121POPC   C2M 6289   0.146   3.969   2.134  0.2782  0.5369 -0.0796
  121POPC   C2N 6290   0.040   3.876   2.076  1.1571 -0.1463 -0.6288
  121POPC   C2O 6291   0.008   3.895   1.927  0.3079 -0.1779 -0.4564
  121POPC   C2P 6292   6.192   3.781   1.867 -0.3668  0.0224  0.0914
  122POPC   CN1 6293   4.688   0.161   3.392 -0.1281  0.1601  0.3279
  122POPC   CN2 6294   4.457   0.125   3.450  0.0725 -0.1157 -0.5812
  122POPC   CN3 6295   4.575   0.283   3.580 -0.2299 -0.3527  0.4442
  122POPC   NTM 6296   4.590   0.160   3.502 -0.2142 -0.2257  0.2488
  122POPC    CA 6297   4.649   0.071   3.602  0.1137  0.1586  0.4022
  122POPC    CB 6298   4.575   0.036   3.732 -0.1515  0.4555  0.3321
  122POPC    OA 6299   4.438   6.292   3.723  0.1391 -0.3387 -0.8313
  122POPC     P 6300   4.378   6.236   3.862  0.4478  0.0262 -0.5462
  122POPC    OB 6301   4.234   6.208   3.846  0.3959  0.1431 -0.2818
  122POPC    OC 6302   4.419   0.022   3.977  0.3592  0.1318 -0.5907
  122POPC    OD 6303   4.472   6.105   3.854  0.1873 -0.1717 -0.4033
  122POPC    CC 6304   4.427   6.015   3.752 -0.4556 -0.0513 -0.2252
  122POPC    CD 6305   4.527   5.902   3.728 -0.4942 -0.0970 -0.1745
  122POPC    OE 6306   4.568   5.879   3.593  0.8611  0.0880  0.1963
  122POPC   C1A 6307   4.651   5.957   3.524  0.0845  0.6252 -0.1462
  122POPC    OF 6308   4.710   6.051   3.577 -0.2805  0.6665  0.1841
  122POPC   C1B 6309   4.665   5.923   3.381  0.2439 -0.0173  0.0178
  122POPC   C1C 6310   4.558   5.999   3.302  0.3265 -0.1145 -0.1889
  122POPC   C1D 6311   4.604   6.033   3.160  0.3181 -0.5666 -0.3026
  122POPC   C1E 6312   4.710   6.144   3.159  0.1608 -0.4134 -0.0762
  122POPC   C1F 6313   4.729   6.196   3.016 -0.1634  0.1928  0.0961
  122POPC   C1G 6314   4.826   0.016   3.035 -0.1000  0.2357 -0.4668
  122POPC   C1H 6315   4.974   6.274   3.043 -0.0447  0.4315 -0.5341
  122POPC   C1I 6316   5.059   0.091   3.099  0.2173 -0.0950  0.1523
  122POPC   C1J 6317   5.174   0.051   3.153  0.3296 -0.3722 -0.2920
  122POPC   C1K 6318   5.211   6.200   3.160  0.1488 -0.3890  0.3143
  122POPC   C1L 6319   5.335   6.201   3.250  0.5616  0.5450 -0.2457
  122POPC   C1M 6320   5.395   6.060   3.253  0.3067  0.4453  0.4230
  122POPC   C1N 6321   5.504   6.038   3.147 -0.0192  0.0936  0.1600
  122POPC   C1O 6322   5.586   5.912   3.173 -0.0105  0.0307 -0.1655
  122POPC   C1P 6323   5.712   5.896   3.088 -0.3585 -0.1512 -0.6470
  122POPC   C1Q 6324   5.751   5.749   3.102 -0.0584  0.0174  0.3541
  122POPC   C1R 6325   5.856   5.708   2.999  0.1956 -0.3732  0.7656
  122POPC    CE 6326   4.471   5.784   3.808 -0.2224 -0.4197 -0.4603
  122POPC    OG 6327   4.329   5.771   3.795 -0.3158  0.1032 -0.0044
  122POPC   C2A 6328   4.274   5.650   3.802  0.3452 -0.1818  0.3826
  122POPC    OH 6329   4.344   5.549   3.806 -0.5447 -0.8277 -0.0313
  122POPC   C2B 6330   4.127   5.646   3.817  0.2945  0.6458  0.1421
  122POPC   C2C 6331   4.055   5.641   3.682 -0.1506 -0.0668  0.3981
  122POPC   C2D 6332   4.033   5.779   3.618 -0.5141 -0.4278 -0.2691
  122POPC   C2E 6333   3.991   5.773   3.472  0.0980  0.0340 -0.4667
  122POPC   C2F 6334   4.074   5.688   3.376  0.3842 -0.0004 -0.1906
  122POPC   C2G 6335   4.027   5.698   3.230 -0.2846 -0.3503 -0.0046
  122POPC   C2H 6336   3.876   5.676   3.220 -0.3776  0.3653 -0.2138
  122POPC   C2I 6337   3.826   5.680   3.075 -0.0698  0.1383 -0.3269
  122POPC   C2J 6338   3.675   5.665   3.061 -0.1344  0.2953  0.1808
  122POPC   C2K 6339   3.628   5.709   2.922  0.9791  0.3189 -0.1940
  122POPC   C2L 6340   3.619   5.856   2.884 -0.1962  0.3288  0.0910
  122POPC   C2M 6341   3.496   5.922   2.947 -0.1115 -0.3072  0.9402
  122POPC   C2N 6342   3.485   6.071   2.911  0.0679 -0.5185 -0.0186
  122POPC   C2O 6343   3.399   6.150   3.010  0.0517  0.1019 -0.5247
  122POPC   C2P 6344   3.364   6.296   2.978 -0.3239  0.3621  1.0138
  123POPC   CN1 6345   0.276   3.985   0.296 -0.0121  0.4525  0.3537
  123POPC   CN2 6346   0.055   3.944   0.365  0.3579 -0.2687  0.3285
  123POPC   CN3 6347   0.172   3.763   0.296 -0.3207  0.7446  0.4714
  123POPC   NTM 6348   0.156   3.906   0.266  0.0480  0.6195 -0.3414
  123POPC    CA 6349   0.113   3.937   0.129 -0.1895  0.6401 -0.2619
  123POPC    CB 6350   6.252   3.885   0.064 -0.5021  0.2246  0.6702
  123POPC    OA 6351   6.227   3.744   0.054  0.3924  0.1003  0.0692
  123POPC     P 6352   0.025   3.672   3.914  0.1438 -0.2274  0.1244
  123POPC    OB 6353   0.052   3.533   3.959 -0.5328 -0.4110 -0.0386
  123POPC    OC 6354   0.119   3.760   3.841 -0.0089  0.1968  0.4313
  123POPC    OD 6355   6.157   3.679   3.828  0.1956 -0.0196  0.0600
  123POPC    CC 6356   6.160   3.588   3.718  0.3825  0.4031 -0.2883
  123POPC    CD 6357   6.059   3.600   3.604 -0.1147  0.7072  0.1773
  123POPC    OE 6358   5.934   3.538   3.637  0.2512 -0.1364  0.0154
  123POPC   C1A 6359   5.824   3.609   3.663  0.2076 -0.2888  0.2449
  123POPC    OF 6360   5.836   3.727   3.692 -0.4557 -0.3035  0.5930
  123POPC   C1B 6361   5.707   3.527   3.703  0.1755 -0.3349  0.0564
  123POPC   C1C 6362   5.611   3.481   3.593  0.0801  0.1948 -0.0831
  123POPC   C1D 6363   5.550   3.598   3.515  0.3047  0.0376 -0.4979
  123POPC   C1E 6364   5.446   3.555   3.412  0.1306 -0.5189 -0.0954
  123POPC   C1F 6365   5.360   3.672   3.365  0.1890 -0.3390  0.2417
  123POPC   C1G 6366   5.333   3.675   3.214  0.2484 -0.7652  0.2236
  123POPC   C1H 6367   5.451   3.699   3.120  0.1146  0.4154  0.3490
  123POPC   C1I 6368   5.389   3.692   2.981  0.1779 -0.2832  0.3515
  123POPC   C1J 6369   5.466   3.662   2.876 -0.3976 -0.7328  0.0493
  123POPC   C1K 6370   5.610   3.617   2.898 -0.3162 -0.3731  0.2600
  123POPC   C1L 6371   5.692   3.563   2.780 -0.7571  0.2924 -0.3562
  123POPC   C1M 6372   5.705   3.678   2.679 -0.1681  0.3812 -0.1809
  123POPC   C1N 6373   5.723   3.612   2.542 -0.4124 -0.1381  0.0302
  123POPC   C1O 6374   5.606   3.537   2.479 -0.1110 -0.5154 -0.0846
  123POPC   C1P 6375   5.681   3.460   2.369 -0.0162 -0.1867 -0.2511
  123POPC   C1Q 6376   5.580   3.407   2.267  0.0552 -0.6002 -0.1091
  123POPC   C1R 6377   5.509   3.520   2.191  0.2704 -0.2323  0.2300
  123POPC    CE 6378   6.129   3.543   3.480 -0.1486  0.6288  0.1942
  123POPC    OG 6379   6.237   3.627   3.439  0.1113  0.2630  0.1240
  123POPC   C2A 6380   0.095   3.581   3.439 -0.0066 -0.0636  0.0022
  123POPC    OH 6381   0.130   3.504   3.528 -0.1740  0.0597  0.1764
  123POPC   C2B 6382   0.186   3.653   3.347 -0.3651  0.2310 -0.1262
  123POPC   C2C 6383   0.151   3.621   3.202 -0.0660  0.3314 -0.2207
  123POPC   C2D 6384   0.265   3.654   3.104 -0.2208  0.5745 -0.3187
  123POPC   C2E 6385   0.209   3.654   2.962 -0.2875  0.4429 -0.2927
  123POPC   C2F 6386   0.317   3.669   2.854  0.0624 -0.6007 -0.1047
  123POPC   C2G 6387   0.261   3.675   2.712 -0.2920  0.5248  0.0690
  123POPC   C2H 6388   0.231   3.532   2.665  0.5048  0.3767 -0.0060
  123POPC   C2I 6389   0.222   3.517   2.513  0.1557  0.3383  0.0174
  123POPC   C2J 6390   0.237   3.374   2.461 -0.8993  0.3035 -0.2024
  123POPC   C2K 6391   0.133   3.285   2.529  0.0888 -0.5542  0.2069
  123POPC   C2L 6392   0.156   3.134   2.515  0.5348 -0.4138 -0.6690
  123POPC   C2M 6393   0.033   3.065   2.575  0.4114 -0.3515 -0.8482
  123POPC   C2N 6394   0.042   2.912   2.581 -0.1809 -0.3801 -0.5802
  123POPC   C2O 6395   6.186   2.852   2.649 -0.1998  0.2952 -0.0099
  123POPC   C2P 6396   6.247   2.756   2.751 -0.1496 -0.2118 -0.5139
  124POPC   CN1 6397   1.693   5.809   3.485 -0.2551 -0.3094  0.3247
  124POPC   CN2 6398   1.803   5.600   3.493  0.7925  0.1152  0.0318
  124POPC   CN3 6399   1.562   5.617   3.511  0.4640 -0.3403 -0.0072
  124POPC   NTM 6400   1.691   5.677   3.550  0.4646 -0.4233  0.1232
  124POPC    CA 6401   1.684   5.683   3.696 -0.1955 -0.0805  0.0835
  124POPC    CB 6402   1.796   5.716   3.795 -0.4689  0.3467  0.2533
  124POPC    OA 6403   1.873   5.822   3.736 -0.2422  0.1654  0.2193
  124POPC     P 6404   1.974   5.882   3.846 -0.3072  0.1860  0.2684
  124POPC    OB 6405   2.031   5.790   3.946 -0.3121  0.2266  0.3084
  124POPC    OC 6406   1.896   5.993   3.903  0.3087  0.6613  0.1978
  124POPC    OD 6407   2.092   5.946   3.757 -0.3269 -0.1687 -0.0158
  124POPC    CC 6408   2.187   5.847   3.716 -0.1405 -0.0976  0.2460
  124POPC    CD 6409   2.159   5.805   3.572 -0.6980 -0.0488  0.3374
  124POPC    OE 6410   2.229   5.688   3.526  0.1344  0.2626  0.7894
  124POPC   C1A 6411   2.188   5.566   3.558  0.6465 -0.0612  0.2353
  124POPC    OF 6412   2.082   5.546   3.619  0.2502 -0.2490 -0.5057
  124POPC   C1B 6413   2.269   5.451   3.514  0.2546 -0.1021 -0.3796
  124POPC   C1C 6414   2.212   5.395   3.383 -0.2077 -0.3345 -0.0815
  124POPC   C1D 6415   2.062   5.365   3.375 -0.3475  0.2951  0.1418
  124POPC   C1E 6416   2.021   5.235   3.446 -0.2980 -0.0321 -0.4227
  124POPC   C1F 6417   1.869   5.223   3.454 -0.2305 -0.5458  0.1285
  124POPC   C1G 6418   1.829   5.096   3.530 -0.4759 -0.3542  0.3203
  124POPC   C1H 6419   1.786   5.003   3.416  0.0340 -0.0535 -0.1248
  124POPC   C1I 6420   1.710   4.889   3.484 -0.2323 -0.1181 -0.5268
  124POPC   C1J 6421   1.603   4.838   3.424 -0.8889  0.7959 -0.1534
  124POPC   C1K 6422   1.565   4.886   3.284 -0.7063 -0.3122 -0.5930
  124POPC   C1L 6423   1.506   4.769   3.205  0.5687 -0.9308 -0.6448
  124POPC   C1M 6424   1.435   4.820   3.079 -0.3592  0.3277  0.3723
  124POPC   C1N 6425   1.543   4.884   2.992 -0.1619 -0.2894  0.1626
  124POPC   C1O 6426   1.483   4.989   2.897 -0.1183 -0.0314  0.4213
  124POPC   C1P 6427   1.422   5.112   2.964  0.4354  0.4551  0.0411
  124POPC   C1Q 6428   1.371   5.209   2.858  0.1606 -0.3574 -0.5822
  124POPC   C1R 6429   1.247   5.280   2.911  0.9418  0.1758  0.5730
  124POPC    CE 6430   2.165   5.934   3.491 -0.1591 -0.1857  0.1512
  124POPC    OG 6431   2.159   5.919   3.348  0.0705 -0.0496  0.1281
  124POPC   C2A 6432   2.040   5.896   3.294 -0.2610  0.3894  0.6519
  124POPC    OH 6433   1.930   5.915   3.344 -0.5990  0.1694  0.0031
  124POPC   C2B 6434   2.050   5.865   3.149 -0.2170  0.7052  0.5867
  124POPC   C2C 6435   1.946   5.761   3.108  0.3480  0.5996 -0.6037
  124POPC   C2D 6436   1.985   5.699   2.973 -0.2153 -0.1110 -0.4391
  124POPC   C2E 6437   2.097   5.599   3.002  0.4673  0.8702  0.4007
  124POPC   C2F 6438   2.210   5.611   2.899  0.0968  0.0073 -0.1267
  124POPC   C2G 6439   2.320   5.510   2.930 -0.0037 -0.0721 -0.0293
  124POPC   C2H 6440   2.430   5.508   2.823  0.0661  0.2255  0.0371
  124POPC   C2I 6441   2.532   5.617   2.855  0.0162  0.2353  0.1659
  124POPC   C2J 6442   2.622   5.627   2.732  0.2197  0.0179  0.2968
  124POPC   C2K 6443   2.708   5.753   2.751  0.1592  0.0647  0.2611
  124POPC   C2L 6444   2.844   5.733   2.685  0.1700  0.4959  0.1485
  124POPC   C2M 6445   2.931   5.635   2.764 -0.1393 -0.1640 -0.3142
  124POPC   C2N 6446   3.067   5.620   2.697  0.1297 -0.0740  0.2007
  124POPC   C2O 6447   3.148   5.530   2.790  0.1311 -0.4149 -0.1273
  124POPC   C2P 6448   3.294   5.507   2.748  0.0529 -0.5715 -0.3161
  125POPC   CN1 6449   2.497   4.722   0.207  0.0257 -0.1582  0.7686
  125POPC   CN2 6450   2.494   4.741   3.956  0.2110  0.1812  0.2796
  125POPC   CN3 6451   2.656   4.595   0.084 -0.1660 -0.0856 -0.3079
  125POPC   NTM 6452   2.580   4.721   0.086 -0.2616 -0.1521  0.5722
  125POPC    CA 6453   2.679   4.829   0.099 -0.1738 -0.1377 -0.1696
  125POPC    CB 6454   2.765   4.875   3.969 -0.0741 -0.2300 -0.1338
  125POPC    OA 6455   2.849   4.770   3.921  0.1926 -0.0836  0.0081
  125POPC     P 6456   2.889   4.794   3.767  0.0073 -0.2909 -0.0722
  125POPC    OB 6457   2.965   4.671   3.736  0.6189  0.0768 -0.0340
  125POPC    OC 6458   2.953   4.927   3.761 -0.1675 -0.2097 -0.1534
  125POPC    OD 6459   2.743   4.808   3.700  0.0007  0.0450  0.0103
  125POPC    CC 6460   2.744   4.846   3.562 -0.2898  0.1032  0.0232
  125POPC    CD 6461   2.613   4.821   3.487 -0.1960 -0.1055 -0.0710
  125POPC    OE 6462   2.634   4.753   3.363  0.1688 -0.3727  0.1355
  125POPC   C1A 6463   2.531   4.696   3.302  0.1477  0.4530 -0.6268
  125POPC    OF 6464   2.444   4.647   3.374  0.5248  1.1061  0.2827
  125POPC   C1B 6465   2.542   4.663   3.158 -0.2273 -0.5550 -0.4357
  125POPC   C1C 6466   2.518   4.783   3.066 -0.2557 -0.0177  0.2634
  125POPC   C1D 6467   2.539   4.756   2.917  0.0007  0.2596  0.2502
  125POPC   C1E 6468   2.681   4.733   2.863 -0.2561 -0.3566 -0.1750
  125POPC   C1F 6469   2.678   4.716   2.711 -0.1140  0.1731 -0.2404
  125POPC   C1G 6470   2.801   4.656   2.642 -0.1672  0.0591 -0.2372
  125POPC   C1H 6471   2.925   4.746   2.641 -0.0037 -0.1646 -0.2664
  125POPC   C1I 6472   3.040   4.687   2.560 -0.1967  0.3135 -0.9020
  125POPC   C1J 6473   3.157   4.747   2.580 -0.1666  0.0508 -0.2527
  125POPC   C1K 6474   3.198   4.864   2.669  0.2115 -0.3920  0.1571
  125POPC   C1L 6475   3.350   4.866   2.685  0.2675 -0.2303 -0.3974
  125POPC   C1M 6476   3.403   5.002   2.732  0.5914 -0.5053  0.0412
  125POPC   C1N 6477   3.368   5.041   2.876  0.0738 -0.3769 -0.1164
  125POPC   C1O 6478   3.440   5.175   2.898 -0.4862  0.0024 -0.5492
  125POPC   C1P 6479   3.387   5.228   3.031  0.1557  0.1697 -0.3572
  125POPC   C1Q 6480   3.449   5.352   3.096  0.3252  0.1294 -0.4410
  125POPC   C1R 6481   3.372   5.374   3.226  0.6003  0.3683 -0.3175
  125POPC    CE 6482   2.557   4.963   3.481  0.0834  0.0008 -0.2206
  125POPC    OG 6483   2.611   5.042   3.376  0.2251 -0.0298 -0.1703
  125POPC   C2A 6484   2.543   5.150   3.338  0.0969 -0.0487  0.0070
  125POPC    OH 6485   2.421   5.160   3.348  0.1010 -0.0429  0.0484
  125POPC   C2B 6486   2.628   5.232   3.249  0.4400 -0.3687  0.0357
  125POPC   C2C 6487   2.640   5.174   3.109 -0.3798 -0.0792 -0.1594
  125POPC   C2D 6488   2.738   5.262   3.031 -0.0330 -0.1133  0.2389
  125POPC   C2E 6489   2.772   5.187   2.902  0.0059 -0.1731  0.2839
  125POPC   C2F 6490   2.863   5.263   2.806 -0.2893  0.1473  0.2568
  125POPC   C2G 6491   2.884   5.164   2.692 -0.0324  0.2691  0.1982
  125POPC   C2H 6492   3.018   5.200   2.627  0.1361  0.2310  0.5248
  125POPC   C2I 6493   3.050   5.148   2.487  0.2214  0.6585  0.3817
  125POPC   C2J 6494   3.170   5.213   2.417  0.3739 -0.2153 -0.1935
  125POPC   C2K 6495   3.163   5.366   2.419  0.0168 -0.2323  0.0397
  125POPC   C2L 6496   3.285   5.421   2.345 -0.3003  0.0971 -0.2401
  125POPC   C2M 6497   3.297   5.573   2.336 -0.4797  0.1138 -0.2061
  125POPC   C2N 6498   3.442   5.623   2.327 -0.4132 -0.0066  0.1970
  125POPC   C2O 6499   3.464   5.758   2.259  0.5684 -0.2698 -0.0166
  125POPC   C2P 6500   3.412   5.881   2.333  0.0435 -0.3235 -0.2899
  126POPC   CN1 6501   0.545   3.408   3.413 -0.3302  0.1646 -0.2816
  126POPC   CN2 6502   0.647   3.342   3.610 -0.2039  0.1991 -0.3468
  126POPC   CN3 6503   0.418   3.429   3.613  0.4322  0.3821  0.5250
  126POPC   NTM 6504   0.553   3.441   3.556  0.0595  0.4420 -0.3646
  126POPC    CA 6505   0.610   3.575   3.578 -0.1060  0.4570 -0.0128
  126POPC    CB 6506   0.747   3.624   3.532  0.0949 -0.0578  0.0409
  126POPC    OA 6507   0.854   3.538   3.575 -0.1182 -0.3863 -0.0818
  126POPC     P 6508   0.977   3.515   3.475  0.2351 -0.2431  0.3183
  126POPC    OB 6509   1.092   3.452   3.544  0.5929 -0.0495 -0.0932
  126POPC    OC 6510   0.983   3.614   3.366  0.1445 -0.2363  0.3195
  126POPC    OD 6511   0.899   3.392   3.406  0.0534  0.0658 -0.0268
  126POPC    CC 6512   0.979   3.338   3.300 -0.2203 -0.0645 -0.1679
  126POPC    CD 6513   0.909   3.233   3.213 -0.0121 -0.3154 -0.0368
  126POPC    OE 6514   0.979   3.171   3.105  0.1563 -0.1962  0.0033
  126POPC   C1A 6515   1.058   3.067   3.129  0.3804  0.0528  0.3543
  126POPC    OF 6516   1.081   3.032   3.245  0.6816  0.0414  0.2919
  126POPC   C1B 6517   1.108   3.004   3.005  0.0818  0.2657  0.1247
  126POPC   C1C 6518   1.241   3.067   2.962  0.3424  0.2485  0.8863
  126POPC   C1D 6519   1.279   3.022   2.821 -0.5493  0.2511  0.6388
  126POPC   C1E 6520   1.416   3.079   2.782 -0.7111 -0.0893 -0.4836
  126POPC   C1F 6521   1.505   3.014   2.677 -0.0597  0.3290 -0.1939
  126POPC   C1G 6522   1.448   3.016   2.535  0.3071 -0.1390 -0.3493
  126POPC   C1H 6523   1.532   2.943   2.430 -0.1929 -0.3455 -0.6077
  126POPC   C1I 6524   1.654   3.028   2.393 -0.1864  0.0283  0.2643
  126POPC   C1J 6525   1.725   2.991   2.287 -0.6929  0.3524 -0.1967
  126POPC   C1K 6526   1.677   2.874   2.202 -0.2824  0.0541 -0.0195
  126POPC   C1L 6527   1.699   2.895   2.052 -0.2886 -0.3826 -0.0834
  126POPC   C1M 6528   1.804   2.800   1.994  0.8148  0.5613  0.3290
  126POPC   C1N 6529   1.813   2.796   1.841 -0.0695 -0.5370  0.2912
  126POPC   C1O 6530   1.833   2.942   1.800  0.7370 -0.7716 -0.1673
  126POPC   C1P 6531   1.846   2.950   1.648  0.1418 -0.3958 -0.2001
  126POPC   C1Q 6532   1.828   3.095   1.599  0.4307 -0.2657  0.0791
  126POPC   C1R 6533   1.817   3.094   1.447 -0.0168 -0.6530  0.1124
  126POPC    CE 6534   0.784   3.307   3.165  0.0991  0.4322  0.7851
  126POPC    OG 6535   0.810   3.417   3.077 -0.0144  0.0355  0.2454
  126POPC   C2A 6536   0.731   3.522   3.094  0.0911  0.1994 -0.2813
  126POPC    OH 6537   0.666   3.529   3.198 -0.1438 -0.2371 -0.3960
  126POPC   C2B 6538   0.727   3.618   2.981  0.0579 -0.0691 -0.5110
  126POPC   C2C 6539   0.829   3.729   3.005 -0.1267 -0.0183  0.0614
  126POPC   C2D 6540   0.814   3.828   2.889 -0.1251  0.5358  0.5274
  126POPC   C2E 6541   0.943   3.902   2.855 -0.0725  0.3292  0.2738
  126POPC   C2F 6542   0.924   3.973   2.721 -0.1617  0.1691  0.2016
  126POPC   C2G 6543   1.035   4.077   2.707 -0.3274  0.2379 -0.6413
  126POPC   C2H 6544   0.998   4.184   2.604  0.1145  0.8694 -0.1546
  126POPC   C2I 6545   1.038   4.106   2.478 -0.5140  0.1832  0.0662
  126POPC   C2J 6546   0.970   4.168   2.356 -0.5657 -0.0740 -0.0363
  126POPC   C2K 6547   0.970   4.087   2.226 -0.3071 -0.1433  0.0057
  126POPC   C2L 6548   0.923   4.148   2.095 -0.4257 -0.1452  0.0470
  126POPC   C2M 6549   1.018   4.260   2.051 -0.2973 -0.1855  0.2232
  126POPC   C2N 6550   0.975   4.336   1.925 -0.0904  0.3640  0.4803
  126POPC   C2O 6551   0.836   4.400   1.938 -0.4297 -0.3108  0.2281
  126POPC   C2P 6552   0.753   4.424   1.812  0.2786 -0.0950 -0.2021
  127POPC   CN1 6553   4.218   4.233   0.215  0.5805 -0.1809 -0.0949
  127POPC   CN2 6554   4.377   4.328   0.077 -0.2973  0.1626 -0.3802
  127POPC   CN3 6555   4.154   4.275   3.985 -0.0719  0.0303 -0.0640
  127POPC   NTM 6556   4.269   4.229   0.077  0.0151 -0.1796 -0.3054
  127POPC    CA 6557   4.320   4.094   0.047  0.7509  0.1114 -0.3689
  127POPC    CB 6558   4.429   4.025   0.129  0.1715  0.0626  0.3786
  127POPC    OA 6559   4.555   4.093   0.126 -0.1270  0.6072 -0.1031
  127POPC     P 6560   4.653   4.053   0.005 -0.1661 -0.1170  0.0990
  127POPC    OB 6561   4.597   3.946   3.909  0.2534  0.0600 -0.4123
  127POPC    OC 6562   4.794   4.032   0.045 -0.1023 -0.4052 -0.2729
  127POPC    OD 6563   4.629   4.187   3.907  0.1857 -0.2755 -0.2422
  127POPC    CC 6564   4.670   4.167   3.771  0.0018  1.0054 -0.4927
  127POPC    CD 6565   4.553   4.140   3.677 -0.4630 -0.2011  0.4100
  127POPC    OE 6566   4.590   4.114   3.541  0.5202 -0.0735  0.6488
  127POPC   C1A 6567   4.642   3.998   3.500  0.7630  0.1908  0.1982
  127POPC    OF 6568   4.669   3.907   3.578 -0.1755 -0.3070 -0.0334
  127POPC   C1B 6569   4.673   3.997   3.355  0.2121 -0.6261  0.0799
  127POPC   C1C 6570   4.795   3.906   3.335  0.6775 -0.0379  0.2091
  127POPC   C1D 6571   4.778   3.858   3.191  0.2512  0.0623  0.2248
  127POPC   C1E 6572   4.898   3.818   3.106  0.2467  0.2499  0.1310
  127POPC   C1F 6573   4.839   3.793   2.967  0.6862 -0.0904  0.0034
  127POPC   C1G 6574   4.917   3.825   2.839  0.1528  0.0457 -0.2880
  127POPC   C1H 6575   5.040   3.735   2.829  0.3814  0.2801  0.3471
  127POPC   C1I 6576   5.126   3.796   2.718 -0.3456  0.4762 -0.1164
  127POPC   C1J 6577   5.167   3.735   2.607  0.2308 -0.2346  0.4748
  127POPC   C1K 6578   5.137   3.587   2.582 -0.3243 -0.1414  0.5767
  127POPC   C1L 6579   5.267   3.510   2.604  0.0760  0.3122 -0.1797
  127POPC   C1M 6580   5.238   3.366   2.560  0.1965  0.0125  0.7073
  127POPC   C1N 6581   5.351   3.266   2.580  0.1200 -0.1736  0.2034
  127POPC   C1O 6582   5.360   3.154   2.475 -0.7505 -0.1176  0.0628
  127POPC   C1P 6583   5.288   3.042   2.550 -0.0929 -0.2979  0.4389
  127POPC   C1Q 6584   5.299   2.909   2.476  0.0666 -0.2266  0.3359
  127POPC   C1R 6585   5.447   2.871   2.464  0.2954  0.6741  0.2108
  127POPC    CE 6586   4.458   4.258   3.695 -0.1608  0.1337 -0.1479
  127POPC    OG 6587   4.500   4.394   3.690 -0.1371  0.1386  0.1902
  127POPC   C2A 6588   4.397   4.479   3.696  0.0309  0.3459  0.1770
  127POPC    OH 6589   4.312   4.466   3.784 -0.2096 -0.0315 -0.1060
  127POPC   C2B 6590   4.435   4.608   3.634 -0.3551  0.3938  0.0383
  127POPC   C2C 6591   4.343   4.650   3.519  0.1280  0.5591 -0.2894
  127POPC   C2D 6592   4.350   4.561   3.395  0.3901  0.1454  0.0154
  127POPC   C2E 6593   4.487   4.571   3.327  0.1624  0.4788 -0.4006
  127POPC   C2F 6594   4.482   4.476   3.207 -0.2232  0.4511 -0.3656
  127POPC   C2G 6595   4.625   4.462   3.153 -0.2368 -0.0943 -0.2742
  127POPC   C2H 6596   4.654   4.580   3.060 -0.8308 -0.1091 -0.4861
  127POPC   C2I 6597   4.803   4.606   3.038 -0.6473 -0.5912  0.1593
  127POPC   C2J 6598   4.881   4.645   3.164 -0.0478  0.1543 -0.4264
  127POPC   C2K 6599   5.017   4.698   3.118  0.2481  0.0038  0.2556
  127POPC   C2L 6600   5.097   4.749   3.237  0.1302  0.0683  0.3071
  127POPC   C2M 6601   5.035   4.861   3.320 -0.4525  0.0346 -0.0818
  127POPC   C2N 6602   5.124   4.922   3.428 -0.4301 -0.2834  0.0813
  127POPC   C2O 6603   5.171   4.818   3.529  0.3444 -0.1836 -0.1746
  127POPC   C2P 6604   5.239   4.890   3.646 -0.2410 -0.0322  0.0755
  128POPC   CN1 6605   5.675   3.184   0.494 -0.5101 -0.1093  0.5755
  128POPC   CN2 6606   5.649   3.198   0.248  0.3051 -0.2076  0.0051
  128POPC   CN3 6607   5.491   3.090   0.389 -0.1210 -0.2275 -0.4351
  128POPC   NTM 6608   5.634   3.117   0.369 -0.1102  0.2350  0.2522
  128POPC    CA 6609   5.710   2.992   0.365 -0.8052 -0.1798 -0.2491
  128POPC    CB 6610   5.695   2.904   0.240 -0.2888  0.0811 -0.5008
  128POPC    OA 6611   5.569   2.836   0.247 -0.2241  0.0090  0.0828
  128POPC     P 6612   5.516   2.798   0.099  0.2519 -0.3032 -0.0117
  128POPC    OB 6613   5.398   2.709   0.104  0.0026  0.0388  0.3572
  128POPC    OC 6614   5.632   2.757   0.017 -0.1216 -0.0477 -0.6733
  128POPC    OD 6615   5.485   2.950   0.054  0.1189 -0.1363  0.6297
  128POPC    CC 6616   5.479   2.951   3.900  0.3827  0.3817  0.6203
  128POPC    CD 6617   5.450   3.086   3.835  0.7001 -0.2500 -0.8789
  128POPC    OE 6618   5.398   3.088   3.702 -0.4353  0.1510 -0.4406
  128POPC   C1A 6619   5.283   3.154   3.691 -0.5614 -0.0227 -0.1587
  128POPC    OF 6620   5.204   3.146   3.785 -0.6247 -0.8652 -0.2765
  128POPC   C1B 6621   5.253   3.159   3.546  0.3362 -0.2914 -0.3582
  128POPC   C1C 6622   5.241   3.023   3.476  0.3568 -0.3857 -0.1804
  128POPC   C1D 6623   5.258   3.043   3.325 -0.4950 -0.6598 -0.3173
  128POPC   C1E 6624   5.394   3.103   3.288 -0.7554 -0.1757 -0.4971
  128POPC   C1F 6625   5.395   3.120   3.136 -0.3528 -0.0902 -0.4855
  128POPC   C1G 6626   5.493   3.224   3.081 -0.3002  0.2107  0.1768
  128POPC   C1H 6627   5.641   3.191   3.092 -0.2750  0.0704 -0.5593
  128POPC   C1I 6628   5.734   3.312   3.081 -0.0110 -0.0394  0.3352
  128POPC   C1J 6629   5.789   3.358   3.193  0.1389  0.0396  0.2300
  128POPC   C1K 6630   5.763   3.290   3.327 -0.2343  0.3234  0.3052
  128POPC   C1L 6631   5.896   3.268   3.400 -0.3291  0.2082  0.4448
  128POPC   C1M 6632   5.871   3.170   3.515 -0.2172 -0.2524  0.0807
  128POPC   C1N 6633   5.854   3.026   3.467  0.0975 -0.3376  0.2213
  128POPC   C1O 6634   5.767   2.943   3.563 -0.0502  0.0686  0.4427
  128POPC   C1P 6635   5.745   2.795   3.532  0.2164  0.0160  0.5021
  128POPC   C1Q 6636   5.650   2.733   3.635 -0.4559  0.0709 -0.0785
  128POPC   C1R 6637   5.658   2.580   3.646 -0.2071  0.1493  0.9121
  128POPC    CE 6638   5.561   3.179   3.884  0.1371  0.1025 -0.2482
  128POPC    OG 6639   5.697   3.140   3.859  0.0701 -0.3973  0.1556
  128POPC   C2A 6640   5.802   3.206   3.906 -0.2653  0.3011 -0.0583
  128POPC    OH 6641   5.793   3.311   3.969 -0.4607  0.1710  0.1315
  128POPC   C2B 6642   5.924   3.123   3.914 -0.1162  0.4830 -0.4509
  128POPC   C2C 6643   6.045   3.192   3.848 -0.0434  0.2710 -0.5393
  128POPC   C2D 6644   6.178   3.128   3.888  0.0137  0.5797 -0.2328
  128POPC   C2E 6645   0.032   3.185   3.814  0.2801  0.3522  0.0240
  128POPC   C2F 6646   0.029   3.153   3.665  0.1643  0.4208  0.0111
  128POPC   C2G 6647   0.157   3.192   3.590  0.3315 -0.4059 -0.1429
  128POPC   C2H 6648   0.178   3.139   3.448 -0.2626 -0.5179 -0.1931
  128POPC   C2I 6649   0.091   3.216   3.349 -0.4661 -0.1503  0.2752
  128POPC   C2J 6650   0.123   3.176   3.205 -0.2709 -0.0214  0.2833
  128POPC   C2K 6651   0.252   3.242   3.156 -0.1035 -0.3672  0.2583
  128POPC   C2L 6652   0.288   3.192   3.016  0.0997  0.2713  0.0773
  128POPC   C2M 6653   0.411   3.253   2.948  0.6398 -0.8394  0.0344
  128POPC   C2N 6654   0.420   3.198   2.805  0.0479  0.4869 -0.5227
  128POPC   C2O 6655   0.551   3.246   2.742  0.5050  0.2932  0.2685
  128POPC   C2P 6656   0.575   3.193   2.601  0.1833  0.1262  0.2756
   6.26729   6.29709   3.98854
