Built with Packmol
 6656
    1POPC   CN1    1   0.187   2.318   0.264
    1POPC   CN2    2   0.387   2.372   0.390
    1POPC   CN3    3   0.382   2.368   0.137
    1POPC   NTM    4   0.334   2.300   0.266
    1POPC    CA    5   0.371   2.146   0.257
    1POPC    CB    6   0.527   2.130   0.250
    1POPC    OA    7   0.584   2.188   0.368
    1POPC     P    8   0.735   2.164   0.400
    1POPC    OB    9   0.788   2.295   0.371
    1POPC    OC   10   0.786   2.048   0.328
    1POPC    OD   11   0.733   2.141   0.556
    1POPC    CC   12   0.628   2.088   0.631
    1POPC    CD   13   0.530   2.190   0.685
    1POPC    OE   14   0.595   2.262   0.788
    1POPC   C1A   15   0.537   2.378   0.821
    1POPC    OF   16   0.440   2.431   0.766
    1POPC   C1B   17   0.627   2.440   0.925
    1POPC   C1C   18   0.574   2.570   0.995
    1POPC   C1D   19   0.470   2.531   1.101
    1POPC   C1E   20   0.439   2.639   1.202
    1POPC   C1F   21   0.316   2.610   1.289
    1POPC   C1G   22   0.318   2.716   1.404
    1POPC   C1H   23   0.221   2.672   1.516
    1POPC   C1I   24   0.218   2.797   1.605
    1POPC   C1J   25   0.248   2.802   1.732
    1POPC   C1K   26   0.303   2.698   1.820
    1POPC   C1L   27   0.295   2.717   1.977
    1POPC   C1M   28   0.147   2.701   2.014
    1POPC   C1N   29   0.117   2.691   2.165
    1POPC   C1O   30   0.194   2.785   2.263
    1POPC   C1P   31   0.150   2.784   2.401
    1POPC   C1Q   32   0.196   2.661   2.483
    1POPC   C1R   33   0.125   2.655   2.623
    1POPC    CE   34   0.399   2.131   0.724
    1POPC    OG   35   0.413   2.034   0.830
    1POPC   C2A   36   0.373   2.068   0.950
    1POPC    OH   37   0.312   2.170   0.980
    1POPC   C2B   38   0.410   1.962   1.049
    1POPC   C2C   39   0.436   2.027   1.188
    1POPC   C2D   40   0.495   1.933   1.289
    1POPC   C2E   41   0.519   1.994   1.435
    1POPC   C2F   42   0.575   1.898   1.543
    1POPC   C2G   43   0.591   1.967   1.683
    1POPC   C2H   44   0.664   1.877   1.783
    1POPC   C2I   45   0.678   1.951   1.920
    1POPC   C2J   46   0.771   1.876   2.016
    1POPC   C2K   47   0.794   1.971   2.132
    1POPC   C2L   48   0.874   1.903   2.245
    1POPC   C2M   49   0.946   2.004   2.335
    1POPC   C2N   50   0.990   1.934   2.461
    1POPC   C2O   51   1.069   2.026   2.555
    1POPC   C2P   52   1.122   1.952   2.678
    2POPC   CN1   53   4.100   0.485   0.241
    2POPC   CN2   54   3.964   0.359   0.395
    2POPC   CN3   55   3.973   0.308   0.147
    2POPC   NTM   56   3.970   0.417   0.254
    2POPC    CA   57   3.852   0.518   0.219
    2POPC    CB   58   3.715   0.442   0.225
    2POPC    OA   59   3.697   0.390   0.358
    2POPC     P   60   3.559   0.332   0.400
    2POPC    OB   61   3.591   0.191   0.404
    2POPC    OC   62   3.453   0.380   0.312
    2POPC    OD   63   3.543   0.386   0.547
    2POPC    CC   64   3.597   0.504   0.599
    2POPC    CD   65   3.734   0.489   0.662
    2POPC    OE   66   3.719   0.419   0.783
    2POPC   C1A   67   3.831   0.366   0.831
    2POPC    OF   68   3.943   0.366   0.778
    2POPC   C1B   69   3.790   0.290   0.956
    2POPC   C1C   70   3.905   0.231   1.043
    2POPC   C1D   71   3.965   0.344   1.129
    2POPC   C1E   72   4.050   0.298   1.245
    2POPC   C1F   73   4.132   0.410   1.312
    2POPC   C1G   74   4.187   0.350   1.445
    2POPC   C1H   75   4.239   0.465   1.535
    2POPC   C1I   76   4.310   0.386   1.646
    2POPC   C1J   77   4.284   0.394   1.774
    2POPC   C1K   78   4.178   0.466   1.845
    2POPC   C1L   79   4.190   0.490   2.000
    2POPC   C1M   80   4.302   0.594   2.018
    2POPC   C1N   81   4.317   0.653   2.160
    2POPC   C1O   82   4.304   0.556   2.282
    2POPC   C1P   83   4.336   0.613   2.412
    2POPC   C1Q   84   4.225   0.704   2.471
    2POPC   C1R   85   4.277   0.780   2.600
    2POPC    CE   86   3.806   0.619   0.673
    2POPC    OG   87   3.737   0.712   0.759
    2POPC   C2A   88   3.786   0.734   0.878
    2POPC    OH   89   3.894   0.694   0.922
    2POPC   C2B   90   3.692   0.820   0.957
    2POPC   C2C   91   3.704   0.784   1.109
    2POPC   C2D   92   3.600   0.849   1.195
    2POPC   C2E   93   3.610   0.820   1.352
    2POPC   C2F   94   3.507   0.890   1.444
    2POPC   C2G   95   3.529   0.856   1.596
    2POPC   C2H   96   3.414   0.910   1.682
    2POPC   C2I   97   3.441   0.873   1.832
    2POPC   C2J   98   3.319   0.903   1.920
    2POPC   C2K   99   3.352   0.840   2.055
    2POPC   C2L  100   3.244   0.875   2.159
    2POPC   C2M  101   3.240   0.775   2.275
    2POPC   C2N  102   3.159   0.834   2.389
    2POPC   C2O  103   3.144   0.737   2.506
    2POPC   C2P  104   3.056   0.794   2.617
    3POPC   CN1  105   1.970   1.237   0.234
    3POPC   CN2  106   2.153   1.327   0.364
    3POPC   CN3  107   2.153   1.326   0.111
    3POPC   NTM  108   2.118   1.249   0.238
    3POPC    CA  109   2.184   1.105   0.229
    3POPC    CB  110   2.340   1.120   0.225
    3POPC    OA  111   2.384   1.187   0.344
    3POPC     P  112   2.535   1.193   0.379
    3POPC    OB  113   2.562   1.333   0.352
    3POPC    OC  114   2.609   1.090   0.307
    3POPC    OD  115   2.536   1.169   0.534
    3POPC    CC  116   2.442   1.094   0.607
    3POPC    CD  117   2.325   1.174   0.660
    3POPC    OE  118   2.372   1.257   0.765
    3POPC   C1A  119   2.292   1.358   0.797
    3POPC    OF  120   2.187   1.391   0.741
    3POPC   C1B  121   2.365   1.436   0.905
    3POPC   C1C  122   2.287   1.551   0.974
    3POPC   C1D  123   2.192   1.491   1.078
    3POPC   C1E  124   2.138   1.590   1.179
    3POPC   C1F  125   2.021   1.535   1.264
    3POPC   C1G  126   2.001   1.638   1.380
    3POPC   C1H  127   1.913   1.574   1.490
    3POPC   C1I  128   1.883   1.695   1.580
    3POPC   C1J  129   1.910   1.704   1.708
    3POPC   C1K  130   1.982   1.612   1.796
    3POPC   C1L  131   1.969   1.628   1.952
    3POPC   C1M  132   1.826   1.582   1.987
    3POPC   C1N  133   1.796   1.563   2.137
    3POPC   C1O  134   1.852   1.670   2.237
    3POPC   C1P  135   1.806   1.659   2.375
    3POPC   C1Q  136   1.875   1.546   2.455
    3POPC   C1R  137   1.804   1.524   2.595
    3POPC    CE  138   2.208   1.090   0.696
    3POPC    OG  139   2.239   0.996   0.801
    3POPC   C2A  140   2.191   1.020   0.920
    3POPC    OH  141   2.110   1.107   0.951
    3POPC   C2B  142   2.247   0.922   1.019
    3POPC   C2C  143   2.257   0.990   1.159
    3POPC   C2D  144   2.332   0.908   1.261
    3POPC   C2E  145   2.341   0.970   1.408
    3POPC   C2F  146   2.413   0.886   1.516
    3POPC   C2G  147   2.413   0.956   1.657
    3POPC   C2H  148   2.501   0.880   1.757
    3POPC   C2I  149   2.498   0.953   1.895
    3POPC   C2J  150   2.602   0.897   1.992
    3POPC   C2K  151   2.604   0.993   2.110
    3POPC   C2L  152   2.694   0.941   2.223
    3POPC   C2M  153   2.743   1.053   2.316
    3POPC   C2N  154   2.799   0.992   2.442
    3POPC   C2O  155   2.856   1.097   2.537
    3POPC   C2P  156   2.920   1.034   2.661
    4POPC   CN1  157   4.122   1.745   0.342
    4POPC   CN2  158   4.120   1.522   0.436
    4POPC   CN3  159   4.123   1.564   0.187
    4POPC   NTM  160   4.068   1.609   0.322
    4POPC    CA  161   3.910   1.614   0.311
    4POPC    CB  162   3.854   1.470   0.282
    4POPC    OA  163   3.892   1.383   0.389
    4POPC     P  164   3.830   1.241   0.400
    4POPC    OB  165   3.944   1.160   0.361
    4POPC    OC  166   3.706   1.232   0.323
    4POPC    OD  167   3.805   1.226   0.554
    4POPC    CC  168   3.779   1.330   0.645
    4POPC    CD  169   3.901   1.389   0.711
    4POPC    OE  170   3.952   1.294   0.802
    4POPC   C1A  171   4.078   1.315   0.841
    4POPC    OF  172   4.155   1.402   0.799
    4POPC   C1B  173   4.113   1.198   0.931
    4POPC   C1C  174   4.250   1.205   1.005
    4POPC   C1D  175   4.236   1.299   1.126
    4POPC   C1E  176   4.347   1.287   1.228
    4POPC   C1F  177   4.348   1.400   1.333
    4POPC   C1G  178   4.448   1.354   1.445
    4POPC   C1H  179   4.427   1.442   1.570
    4POPC   C1I  180   4.548   1.400   1.657
    4POPC   C1J  181   4.542   1.351   1.778
    4POPC   C1K  182   4.425   1.313   1.859
    4POPC   C1L  183   4.442   1.293   2.014
    4POPC   C1M  184   4.464   1.433   2.073
    4POPC   C1N  185   4.458   1.444   2.227
    4POPC   C1O  186   4.527   1.331   2.311
    4POPC   C1P  187   4.535   1.354   2.455
    4POPC   C1Q  188   4.401   1.329   2.530
    4POPC   C1R  189   4.411   1.379   2.680
    4POPC    CE  190   3.877   1.524   0.769
    4POPC    OG  191   3.777   1.520   0.873
    4POPC   C2A  192   3.818   1.533   0.997
    4POPC    OH  193   3.931   1.561   1.034
    4POPC   C2B  194   3.703   1.510   1.091
    4POPC   C2C  195   3.757   1.449   1.224
    4POPC   C2D  196   3.649   1.402   1.317
    4POPC   C2E  197   3.698   1.343   1.457
    4POPC   C2F  198   3.588   1.298   1.558
    4POPC   C2G  199   3.648   1.245   1.693
    4POPC   C2H  200   3.539   1.184   1.782
    4POPC   C2I  201   3.605   1.132   1.914
    4POPC   C2J  202   3.506   1.048   1.997
    4POPC   C2K  203   3.590   0.985   2.108
    4POPC   C2L  204   3.501   0.910   2.208
    4POPC   C2M  205   3.578   0.803   2.286
    4POPC   C2N  206   3.496   0.760   2.405
    4POPC   C2O  207   3.563   0.647   2.485
    4POPC   C2P  208   3.476   0.599   2.600
    5POPC   CN1  209   6.310   0.573   0.308
    5POPC   CN2  210   6.104   0.571   0.434
    5POPC   CN3  211   6.111   0.533   0.184
    5POPC   NTM  212   6.168   0.612   0.302
    5POPC    CA  213   6.155   0.766   0.267
    5POPC    CB  214   6.004   0.805   0.253
    5POPC    OA  215   5.937   0.777   0.377
    5POPC     P  216   5.792   0.828   0.400
    5POPC    OB  217   5.719   0.703   0.391
    5POPC    OC  218   5.760   0.937   0.309
    5POPC    OD  219   5.796   0.875   0.550
    5POPC    CC  220   5.908   0.924   0.619
    5POPC    CD  221   5.988   0.818   0.692
    5POPC    OE  222   5.912   0.774   0.803
    5POPC   C1A  223   5.952   0.659   0.855
    5POPC    OF  224   6.040   0.583   0.813
    5POPC   C1B  225   5.853   0.628   0.966
    5POPC   C1C  226   5.884   0.505   1.057
    5POPC   C1D  227   5.992   0.545   1.159
    5POPC   C1E  228   6.005   0.451   1.276
    5POPC   C1F  229   6.131   0.476   1.362
    5POPC   C1G  230   6.112   0.391   1.492
    5POPC   C1H  231   6.214   0.438   1.599
    5POPC   C1I  232   6.198   0.330   1.707
    5POPC   C1J  233   6.165   0.351   1.832
    5POPC   C1K  234   6.127   0.475   1.901
    5POPC   C1L  235   6.131   0.480   2.058
    5POPC   C1M  236   6.279   0.480   2.097
    5POPC   C1N  237   6.310   0.511   2.246
    5POPC   C1O  238   6.218   0.446   2.355
    5POPC   C1P  239   6.261   0.463   2.493
    5POPC   C1Q  240   6.234   0.604   2.551
    5POPC   C1R  241   6.305   0.622   2.691
    5POPC    CE  242   6.126   0.863   0.724
    5POPC    OG  243   6.127   0.976   0.813
    5POPC   C2A  244   6.160   0.957   0.938
    5POPC    OH  245   6.205   0.853   0.986
    5POPC   C2B  246   6.139   1.082   1.017
    5POPC   C2C  247   6.103   1.045   1.164
    5POPC   C2D  248   6.058   1.162   1.247
    5POPC   C2E  249   6.025   1.131   1.400
    5POPC   C2F  250   5.984   1.251   1.490
    5POPC   C2G  251   5.956   1.208   1.639
    5POPC   C2H  252   5.897   1.324   1.720
    5POPC   C2I  253   5.871   1.276   1.866
    5POPC   C2J  254   5.790   1.379   1.946
    5POPC   C2K  255   5.752   1.309   2.076
    5POPC   C2L  256   5.682   1.406   2.173
    5POPC   C2M  257   5.595   1.333   2.276
    5POPC   C2N  258   5.561   1.429   2.388
    5POPC   C2O  259   5.468   1.366   2.492
    5POPC   C2P  260   5.427   1.466   2.600
    6POPC   CN1  261   3.543   1.526   0.305
    6POPC   CN2  262   3.545   1.309   0.412
    6POPC   CN3  263   3.543   1.337   0.160
    6POPC   NTM  264   3.489   1.389   0.294
    6POPC    CA  265   3.331   1.393   0.285
    6POPC    CB  266   3.276   1.247   0.265
    6POPC    OA  267   3.317   1.166   0.377
    6POPC     P  268   3.256   1.024   0.396
    6POPC    OB  269   3.370   0.942   0.361
    6POPC    OC  270   3.131   1.010   0.322
    6POPC    OD  271   3.234   1.018   0.552
    6POPC    CC  272   3.208   1.127   0.637
    6POPC    CD  273   3.332   1.191   0.697
    6POPC    OE  274   3.385   1.101   0.792
    6POPC   C1A  275   3.511   1.125   0.828
    6POPC    OF  276   3.587   1.210   0.780
    6POPC   C1B  277   3.549   1.014   0.924
    6POPC   C1C  278   3.687   1.026   0.995
    6POPC   C1D  279   3.675   1.127   1.110
    6POPC   C1E  280   3.788   1.121   1.211
    6POPC   C1F  281   3.789   1.240   1.310
    6POPC   C1G  282   3.891   1.201   1.422
    6POPC   C1H  283   3.872   1.296   1.543
    6POPC   C1I  284   3.994   1.260   1.629
    6POPC   C1J  285   3.991   1.218   1.753
    6POPC   C1K  286   3.876   1.183   1.838
    6POPC   C1L  287   3.896   1.172   1.994
    6POPC   C1M  288   3.917   1.316   2.045
    6POPC   C1N  289   3.914   1.335   2.198
    6POPC   C1O  290   3.986   1.227   2.287
    6POPC   C1P  291   3.996   1.258   2.429
    6POPC   C1Q  292   3.864   1.238   2.508
    6POPC   C1R  293   3.876   1.296   2.654
    6POPC    CE  294   3.307   1.328   0.748
    6POPC    OG  295   3.209   1.330   0.854
    6POPC   C2A  296   3.252   1.349   0.976
    6POPC    OH  297   3.366   1.380   1.010
    6POPC   C2B  298   3.139   1.331   1.074
    6POPC   C2C  299   3.196   1.278   1.209
    6POPC   C2D  300   3.090   1.235   1.306
    6POPC   C2E  301   3.142   1.185   1.449
    6POPC   C2F  302   3.034   1.145   1.553
    6POPC   C2G  303   3.097   1.100   1.690
    6POPC   C2H  304   2.990   1.043   1.785
    6POPC   C2I  305   3.058   0.999   1.918
    6POPC   C2J  306   2.962   0.920   2.008
    6POPC   C2K  307   3.048   0.864   2.120
    6POPC   C2L  308   2.962   0.794   2.227
    6POPC   C2M  309   3.041   0.692   2.308
    6POPC   C2N  310   2.961   0.655   2.431
    6POPC   C2O  311   3.030   0.548   2.516
    6POPC   C2P  312   2.946   0.505   2.635
    7POPC   CN1  313   4.568   1.419   0.242
    7POPC   CN2  314   4.560   1.623   0.371
    7POPC   CN3  315   4.563   1.622   0.118
    7POPC   NTM  316   4.618   1.558   0.246
    7POPC    CA  317   4.776   1.560   0.237
    7POPC    CB  318   4.827   1.708   0.234
    7POPC    OA  319   4.783   1.775   0.353
    7POPC     P  320   4.840   1.916   0.387
    7POPC    OB  321   4.724   1.998   0.360
    7POPC    OC  322   4.965   1.941   0.316
    7POPC    OD  323   4.862   1.907   0.543
    7POPC    CC  324   4.891   1.790   0.616
    7POPC    CD  325   4.769   1.717   0.669
    7POPC    OE  326   4.713   1.794   0.773
    7POPC   C1A  327   4.588   1.763   0.805
    7POPC    OF  328   4.514   1.682   0.748
    7POPC   C1B  329   4.547   1.862   0.911
    7POPC   C1C  330   4.408   1.839   0.980
    7POPC   C1D  331   4.423   1.727   1.085
    7POPC   C1E  332   4.310   1.719   1.185
    7POPC   C1F  333   4.312   1.591   1.270
    7POPC   C1G  334   4.208   1.615   1.386
    7POPC   C1H  335   4.230   1.508   1.496
    7POPC   C1I  336   4.107   1.531   1.585
    7POPC   C1J  337   4.109   1.560   1.713
    7POPC   C1K  338   4.222   1.588   1.801
    7POPC   C1L  339   4.202   1.582   1.957
    7POPC   C1M  340   4.184   1.433   1.992
    7POPC   C1N  341   4.188   1.398   2.143
    7POPC   C1O  342   4.113   1.493   2.242
    7POPC   C1P  343   4.104   1.447   2.380
    7POPC   C1Q  344   4.235   1.463   2.461
    7POPC   C1R  345   4.224   1.390   2.601
    7POPC    CE  346   4.798   1.576   0.705
    7POPC    OG  347   4.895   1.565   0.811
    7POPC   C2A  348   4.853   1.532   0.930
    7POPC    OH  349   4.740   1.494   0.959
    7POPC   C2B  350   4.965   1.543   1.029
    7POPC   C2C  351   4.906   1.580   1.169
    7POPC   C2D  352   5.011   1.614   1.271
    7POPC   C2E  353   4.957   1.648   1.418
    7POPC   C2F  354   5.063   1.679   1.526
    7POPC   C2G  355   4.999   1.708   1.667
    7POPC   C2H  356   5.104   1.757   1.768
    7POPC   C2I  357   5.035   1.785   1.905
    7POPC   C2J  358   5.128   1.857   2.002
    7POPC   C2K  359   5.041   1.898   2.120
    7POPC   C2L  360   5.125   1.959   2.233
    7POPC   C2M  361   5.043   2.050   2.325
    7POPC   C2N  362   5.121   2.075   2.452
    7POPC   C2O  363   5.049   2.171   2.547
    7POPC   C2P  364   5.132   2.203   2.671
    8POPC   CN1  365   5.709   1.134   0.235
    8POPC   CN2  366   5.520   1.124   0.386
    8POPC   CN3  367   5.497   1.096   0.135
    8POPC   NTM  368   5.567   1.172   0.248
    8POPC    CA  369   5.549   1.327   0.222
    8POPC    CB  370   5.397   1.364   0.228
    8POPC    OA  371   5.346   1.330   0.358
    8POPC     P  372   5.204   1.378   0.400
    8POPC    OB  373   5.131   1.253   0.395
    8POPC    OC  374   5.160   1.491   0.318
    8POPC    OD  375   5.226   1.420   0.550
    8POPC    CC  376   5.345   1.467   0.607
    8POPC    CD  377   5.435   1.360   0.665
    8POPC    OE  378   5.373   1.311   0.783
    8POPC   C1A  379   5.419   1.193   0.825
    8POPC    OF  380   5.502   1.120   0.769
    8POPC   C1B  381   5.335   1.158   0.946
    8POPC   C1C  382   5.378   1.031   1.027
    8POPC   C1D  383   5.497   1.069   1.117
    8POPC   C1E  384   5.525   0.970   1.228
    8POPC   C1F  385   5.661   0.993   1.299
    8POPC   C1G  386   5.658   0.903   1.427
    8POPC   C1H  387   5.772   0.947   1.522
    8POPC   C1I  388   5.769   0.835   1.627
    8POPC   C1J  389   5.753   0.850   1.756
    8POPC   C1K  390   5.722   0.971   1.833
    8POPC   C1L  391   5.745   0.970   1.989
    8POPC   C1M  392   5.897   0.970   2.010
    8POPC   C1N  393   5.945   0.995   2.155
    8POPC   C1O  394   5.867   0.925   2.271
    8POPC   C1P  395   5.927   0.937   2.404
    8POPC   C1Q  396   5.906   1.076   2.471
    8POPC   C1R  397   5.993   1.089   2.602
    8POPC    CE  398   5.575   1.405   0.683
    8POPC    OG  399   5.586   1.515   0.775
    8POPC   C2A  400   5.634   1.491   0.894
    8POPC    OH  401   5.686   1.386   0.932
    8POPC   C2B  402   5.622   1.613   0.980
    8POPC   C2C  403   5.604   1.569   1.129
    8POPC   C2D  404   5.569   1.682   1.222
    8POPC   C2E  405   5.555   1.645   1.376
    8POPC   C2F  406   5.524   1.760   1.475
    8POPC   C2G  407   5.515   1.712   1.624
    8POPC   C2H  408   5.465   1.824   1.716
    8POPC   C2I  409   5.457   1.770   1.863
    8POPC   C2J  410   5.386   1.868   1.956
    8POPC   C2K  411   5.365   1.793   2.086
    8POPC   C2L  412   5.307   1.885   2.195
    8POPC   C2M  413   5.233   1.807   2.305
    8POPC   C2N  414   5.212   1.898   2.424
    8POPC   C2O  415   5.133   1.830   2.536
    8POPC   C2P  416   5.105   1.925   2.652
    9POPC   CN1  417   0.868   1.045   0.304
    9POPC   CN2  418   1.077   0.975   0.403
    9POPC   CN3  419   1.035   0.968   0.154
    9POPC   NTM  420   0.976   0.945   0.293
    9POPC    CA  421   0.916   0.799   0.297
    9POPC    CB  422   1.031   0.694   0.276
    9POPC    OA  423   1.127   0.710   0.381
    9POPC     P  424   1.239   0.603   0.400
    9POPC    OB  425   1.354   0.678   0.353
    9POPC    OC  426   1.203   0.477   0.336
    9POPC    OD  427   1.247   0.590   0.557
    9POPC    CC  428   1.142   0.610   0.648
    9POPC    CD  429   1.130   0.752   0.700
    9POPC    OE  430   1.239   0.775   0.788
    9POPC   C1A  431   1.263   0.903   0.813
    9POPC    OF  432   1.208   1.002   0.763
    9POPC   C1B  433   1.386   0.904   0.902
    9POPC   C1C  434   1.429   1.042   0.962
    9POPC   C1D  435   1.338   1.074   1.082
    9POPC   C1E  436   1.390   1.183   1.173
    9POPC   C1F  437   1.286   1.233   1.276
    9POPC   C1G  438   1.366   1.321   1.378
    9POPC   C1H  439   1.278   1.345   1.503
    9POPC   C1I  440   1.361   1.451   1.578
    9POPC   C1J  441   1.406   1.440   1.700
    9POPC   C1K  442   1.403   1.327   1.793
    9POPC   C1L  443   1.430   1.351   1.946
    9POPC   C1M  444   1.307   1.425   2.000
    9POPC   C1N  445   1.298   1.439   2.154
    9POPC   C1O  446   1.429   1.472   2.232
    9POPC   C1P  447   1.413   1.501   2.374
    9POPC   C1Q  448   1.390   1.376   2.463
    9POPC   C1R  449   1.349   1.417   2.609
    9POPC    CE  450   0.996   0.781   0.758
    9POPC    OG  451   0.967   0.698   0.871
    9POPC   C2A  452   0.971   0.752   0.990
    9POPC    OH  453   0.985   0.871   1.016
    9POPC   C2B  454   0.954   0.646   1.096
    9POPC   C2C  455   1.033   0.688   1.224
    9POPC   C2D  456   1.040   0.580   1.328
    9POPC   C2E  457   1.115   0.619   1.464
    9POPC   C2F  458   1.120   0.512   1.575
    9POPC   C2G  459   1.194   0.562   1.705
    9POPC   C2H  460   1.214   0.448   1.806
    9POPC   C2I  461   1.288   0.504   1.931
    9POPC   C2J  462   1.333   0.391   2.025
    9POPC   C2K  463   1.423   0.458   2.128
    9POPC   C2L  464   1.464   0.359   2.239
    9POPC   C2M  465   1.593   0.401   2.310
    9POPC   C2N  466   1.607   0.321   2.438
    9POPC   C2O  467   1.737   0.352   2.512
    9POPC   C2P  468   1.754   0.266   2.636
   10POPC   CN1  469   6.049   4.562   0.326
   10POPC   CN2  470   5.863   4.435   0.412
   10POPC   CN3  471   5.893   4.484   0.166
   10POPC   NTM  472   5.905   4.538   0.308
   10POPC    CA  473   5.825   4.675   0.315
   10POPC    CB  474   5.673   4.649   0.288
   10POPC    OA  475   5.623   4.558   0.387
   10POPC     P  476   5.470   4.534   0.399
   10POPC    OB  477   5.461   4.400   0.345
   10POPC    OC  478   5.394   4.642   0.337
   10POPC    OD  479   5.448   4.529   0.555
   10POPC    CC  480   5.525   4.595   0.652
   10POPC    CD  481   5.642   4.516   0.705
   10POPC    OE  482   5.591   4.412   0.786
   10POPC   C1A  483   5.677   4.313   0.811
   10POPC    OF  484   5.791   4.299   0.764
   10POPC   C1B  485   5.600   4.211   0.892
   10POPC   C1C  486   5.680   4.091   0.950
   10POPC   C1D  487   5.756   4.138   1.075
   10POPC   C1E  488   5.808   4.026   1.163
   10POPC   C1F  489   5.907   4.073   1.271
   10POPC   C1G  490   5.924   3.952   1.369
   10POPC   C1H  491   5.992   4.001   1.499
   10POPC   C1I  492   6.023   3.868   1.569
   10POPC   C1J  493   5.982   3.832   1.689
   10POPC   C1K  494   5.891   3.900   1.781
   10POPC   C1L  495   5.887   3.857   1.933
   10POPC   C1M  496   6.019   3.906   1.994
   10POPC   C1N  497   6.030   3.899   2.148
   10POPC   C1O  498   5.974   3.771   2.219
   10POPC   C1P  499   6.001   3.760   2.361
   10POPC   C1Q  500   5.912   3.850   2.451
   10POPC   C1R  501   5.964   3.851   2.600
   10POPC    CE  502   5.745   4.601   0.771
   10POPC    OG  503   5.693   4.670   0.886
   10POPC   C2A  504   5.728   4.628   1.004
   10POPC    OH  505   5.814   4.544   1.029
   10POPC   C2B  506   5.651   4.701   1.110
   10POPC   C2C  507   5.632   4.608   1.233
   10POPC   C2D  508   5.537   4.663   1.337
   10POPC   C2E  509   5.517   4.574   1.468
   10POPC   C2F  510   5.425   4.631   1.579
   10POPC   C2G  511   5.416   4.536   1.704
   10POPC   C2H  512   5.309   4.584   1.803
   10POPC   C2I  513   5.303   4.486   1.925
   10POPC   C2J  514   5.183   4.515   2.015
   10POPC   C2K  515   5.177   4.399   2.113
   10POPC   C2L  516   5.070   4.421   2.220
   10POPC   C2M  517   5.022   4.291   2.284
   10POPC   C2N  518   4.946   4.323   2.411
   10POPC   C2O  519   4.888   4.198   2.478
   10POPC   C2P  520   4.804   4.231   2.601
   11POPC   CN1  521   5.428   2.495   0.231
   11POPC   CN2  522   5.240   2.565   0.365
   11POPC   CN3  523   5.234   2.560   0.112
   11POPC   NTM  524   5.317   2.592   0.237
   11POPC    CA  525   5.373   2.739   0.222
   11POPC    CB  526   5.253   2.841   0.220
   11POPC    OA  527   5.179   2.828   0.342
   11POPC     P  528   5.069   2.933   0.378
   11POPC    OB  529   4.950   2.854   0.356
   11POPC    OC  530   5.089   3.056   0.302
   11POPC    OD  531   5.091   2.954   0.532
   11POPC    CC  532   5.213   2.940   0.602
   11POPC    CD  533   5.239   2.801   0.657
   11POPC    OE  534   5.150   2.780   0.765
   11POPC   C1A  535   5.134   2.653   0.801
   11POPC    OF  536   5.182   2.553   0.745
   11POPC   C1B  537   5.030   2.653   0.911
   11POPC   C1C  538   5.004   2.518   0.984
   11POPC   C1D  539   5.117   2.494   1.086
   11POPC   C1E  540   5.087   2.388   1.190
   11POPC   C1F  541   5.210   2.345   1.272
   11POPC   C1G  542   5.155   2.261   1.391
   11POPC   C1H  543   5.265   2.245   1.498
   11POPC   C1I  544   5.202   2.141   1.592
   11POPC   C1J  545   5.181   2.157   1.721
   11POPC   C1K  546   5.198   2.275   1.806
   11POPC   C1L  547   5.202   2.257   1.962
   11POPC   C1M  548   5.335   2.188   1.995
   11POPC   C1N  549   5.374   2.183   2.144
   11POPC   C1O  550   5.261   2.150   2.248
   11POPC   C1P  551   5.306   2.128   2.385
   11POPC   C1Q  552   5.341   2.258   2.462
   11POPC   C1R  553   5.411   2.225   2.600
   11POPC    CE  554   5.382   2.777   0.689
   11POPC    OG  555   5.430   2.867   0.791
   11POPC   C2A  556   5.450   2.819   0.911
   11POPC    OH  557   5.445   2.700   0.943
   11POPC   C2B  558   5.484   2.929   1.006
   11POPC   C2C  559   5.433   2.892   1.148
   11POPC   C2D  560   5.442   3.005   1.247
   11POPC   C2E  561   5.396   2.971   1.397
   11POPC   C2F  562   5.410   3.084   1.502
   11POPC   C2G  563   5.364   3.038   1.646
   11POPC   C2H  564   5.360   3.156   1.743
   11POPC   C2I  565   5.313   3.105   1.884
   11POPC   C2J  566   5.283   3.221   1.979
   11POPC   C2K  567   5.217   3.158   2.101
   11POPC   C2L  568   5.195   3.261   2.213
   11POPC   C2M  569   5.084   3.220   2.309
   11POPC   C2N  570   5.093   3.306   2.434
   11POPC   C2O  571   4.980   3.276   2.533
   11POPC   C2P  572   4.984   3.368   2.654
   12POPC   CN1  573   0.555   3.039   0.259
   12POPC   CN2  574   0.749   3.096   0.391
   12POPC   CN3  575   0.749   3.105   0.138
   12POPC   NTM  576   0.702   3.029   0.262
   12POPC    CA  577   0.747   2.877   0.247
   12POPC    CB  578   0.903   2.868   0.243
   12POPC    OA  579   0.956   2.923   0.365
   12POPC     P  580   1.107   2.904   0.399
   12POPC    OB  581   1.154   3.039   0.378
   12POPC    OC  582   1.164   2.794   0.322
   12POPC    OD  583   1.103   2.873   0.553
   12POPC    CC  584   0.999   2.811   0.623
   12POPC    CD  585   0.895   2.906   0.680
   12POPC    OE  586   0.954   2.976   0.788
   12POPC   C1A  587   0.891   3.086   0.825
   12POPC    OF  588   0.792   3.138   0.771
   12POPC   C1B  589   0.975   3.148   0.935
   12POPC   C1C  590   0.915   3.271   1.010
   12POPC   C1D  591   0.811   3.221   1.112
   12POPC   C1E  592   0.773   3.323   1.217
   12POPC   C1F  593   0.650   3.283   1.300
   12POPC   C1G  594   0.645   3.384   1.420
   12POPC   C1H  595   0.548   3.329   1.528
   12POPC   C1I  596   0.536   3.450   1.622
   12POPC   C1J  597   0.564   3.449   1.751
   12POPC   C1K  598   0.622   3.344   1.834
   12POPC   C1L  599   0.610   3.354   1.991
   12POPC   C1M  600   0.462   3.329   2.025
   12POPC   C1N  601   0.430   3.310   2.174
   12POPC   C1O  602   0.501   3.403   2.278
   12POPC   C1P  603   0.454   3.393   2.416
   12POPC   C1Q  604   0.504   3.267   2.491
   12POPC   C1R  605   0.430   3.251   2.630
   12POPC    CE  606   0.767   2.839   0.713
   12POPC    OG  607   0.783   2.737   0.814
   12POPC   C2A  608   0.739   2.763   0.935
   12POPC    OH  609   0.672   2.861   0.969
   12POPC   C2B  610   0.779   2.654   1.029
   12POPC   C2C  611   0.799   2.713   1.171
   12POPC   C2D  612   0.860   2.617   1.269
   12POPC   C2E  613   0.878   2.671   1.419
   12POPC   C2F  614   0.937   2.572   1.523
   12POPC   C2G  615   0.947   2.635   1.667
   12POPC   C2H  616   1.022   2.543   1.763
   12POPC   C2I  617   1.030   2.610   1.904
   12POPC   C2J  618   1.125   2.535   1.998
   12POPC   C2K  619   1.141   2.625   2.120
   12POPC   C2L  620   1.222   2.555   2.230
   12POPC   C2M  621   1.287   2.654   2.327
   12POPC   C2N  622   1.332   2.580   2.451
   12POPC   C2O  623   1.405   2.670   2.550
   12POPC   C2P  624   1.458   2.593   2.670
   13POPC   CN1  625   3.336   2.171   0.245
   13POPC   CN2  626   3.336   2.357   0.400
   13POPC   CN3  627   3.285   2.384   0.153
   13POPC   NTM  628   3.372   2.314   0.258
   13POPC    CA  629   3.524   2.336   0.219
   13POPC    CB  630   3.558   2.489   0.226
   13POPC    OA  631   3.534   2.536   0.359
   13POPC     P  632   3.583   2.678   0.400
   13POPC    OB  633   3.456   2.748   0.407
   13POPC    OC  634   3.687   2.727   0.310
   13POPC    OD  635   3.638   2.654   0.546
   13POPC    CC  636   3.692   2.535   0.596
   13POPC    CD  637   3.592   2.442   0.661
   13POPC    OE  638   3.552   2.500   0.783
   13POPC   C1A  639   3.440   2.450   0.835
   13POPC    OF  640   3.364   2.366   0.783
   13POPC   C1B  641   3.412   2.531   0.960
   13POPC   C1C  642   3.295   2.483   1.051
   13POPC   C1D  643   3.342   2.363   1.134
   13POPC   C1E  644   3.254   2.330   1.252
   13POPC   C1F  645   3.286   2.194   1.318
   13POPC   C1G  646   3.207   2.191   1.453
   13POPC   C1H  647   3.262   2.077   1.541
   13POPC   C1I  648   3.158   2.074   1.655
   13POPC   C1J  649   3.184   2.088   1.783
   13POPC   C1K  650   3.310   2.121   1.850
   13POPC   C1L  651   3.324   2.095   2.005
   13POPC   C1M  652   3.329   1.942   2.023
   13POPC   C1N  653   3.368   1.891   2.164
   13POPC   C1O  654   3.306   1.964   2.287
   13POPC   C1P  655   3.331   1.903   2.417
   13POPC   C1Q  656   3.474   1.925   2.472
   13POPC   C1R  657   3.500   1.836   2.600
   13POPC    CE  658   3.641   2.302   0.671
   13POPC    OG  659   3.759   2.292   0.753
   13POPC   C2A  660   3.747   2.240   0.873
   13POPC    OH  661   3.646   2.186   0.919
   13POPC   C2B  662   3.875   2.254   0.949
   13POPC   C2C  663   3.844   2.268   1.101
   13POPC   C2D  664   3.964   2.303   1.184
   13POPC   C2E  665   3.939   2.314   1.342
   13POPC   C2F  666   4.062   2.345   1.431
   13POPC   C2G  667   4.026   2.350   1.584
   13POPC   C2H  668   4.144   2.400   1.668
   13POPC   C2I  669   4.103   2.404   1.818
   13POPC   C2J  670   4.208   2.475   1.904
   13POPC   C2K  671   4.143   2.492   2.041
   13POPC   C2L  672   4.243   2.549   2.143
   13POPC   C2M  673   4.173   2.619   2.261
   13POPC   C2N  674   4.273   2.639   2.372
   13POPC   C2O  675   4.214   2.714   2.491
   13POPC   C2P  676   4.317   2.743   2.599
   14POPC   CN1  677   4.921   1.186   0.251
   14POPC   CN2  678   4.931   0.999   0.403
   14POPC   CN3  679   4.982   0.977   0.156
   14POPC   NTM  680   4.892   1.041   0.262
   14POPC    CA  681   4.742   1.012   0.223
   14POPC    CB  682   4.715   0.858   0.228
   14POPC    OA  683   4.742   0.810   0.361
   14POPC     P  684   4.701   0.665   0.400
   14POPC    OB  685   4.831   0.602   0.406
   14POPC    OC  686   4.599   0.613   0.309
   14POPC    OD  687   4.645   0.684   0.546
   14POPC    CC  688   4.585   0.800   0.598
   14POPC    CD  689   4.680   0.897   0.664
   14POPC    OE  690   4.724   0.840   0.785
   14POPC   C1A  691   4.833   0.895   0.837
   14POPC    OF  692   4.905   0.982   0.786
   14POPC   C1B  693   4.865   0.813   0.961
   14POPC   C1C  694   4.981   0.866   1.052
   14POPC   C1D  695   4.927   0.982   1.137
   14POPC   C1E  696   5.014   1.018   1.256
   14POPC   C1F  697   4.976   1.152   1.323
   14POPC   C1G  698   5.054   1.156   1.459
   14POPC   C1H  699   4.995   1.266   1.549
   14POPC   C1I  700   5.098   1.273   1.662
   14POPC   C1J  701   5.073   1.255   1.790
   14POPC   C1K  702   4.949   1.216   1.857
   14POPC   C1L  703   4.935   1.239   2.012
   14POPC   C1M  704   4.922   1.391   2.032
   14POPC   C1N  705   4.882   1.438   2.173
   14POPC   C1O  706   4.947   1.366   2.296
   14POPC   C1P  707   4.920   1.425   2.426
   14POPC   C1Q  708   4.779   1.394   2.482
   14POPC   C1R  709   4.748   1.481   2.611
   14POPC    CE  710   4.624   1.034   0.676
   14POPC    OG  711   4.506   1.037   0.759
   14POPC   C2A  712   4.516   1.088   0.879
   14POPC    OH  713   4.614   1.147   0.925
   14POPC   C2B  714   4.389   1.067   0.955
   14POPC   C2C  715   4.421   1.053   1.107
   14POPC   C2D  716   4.304   1.010   1.190
   14POPC   C2E  717   4.329   0.999   1.347
   14POPC   C2F  718   4.208   0.960   1.436
   14POPC   C2G  719   4.245   0.955   1.589
   14POPC   C2H  720   4.130   0.898   1.673
   14POPC   C2I  721   4.172   0.894   1.823
   14POPC   C2J  722   4.071   0.816   1.908
   14POPC   C2K  723   4.137   0.801   2.045
   14POPC   C2L  724   4.041   0.737   2.146
   14POPC   C2M  725   4.114   0.670   2.263
   14POPC   C2N  726   4.015   0.642   2.374
   14POPC   C2O  727   4.079   0.569   2.492
   14POPC   C2P  728   3.977   0.534   2.600
   15POPC   CN1  729   0.464   3.700   0.268
   15POPC   CN2  730   0.340   3.856   0.404
   15POPC   CN3  731   0.307   3.836   0.154
   15POPC   NTM  732   0.408   3.836   0.269
   15POPC    CA  733   0.520   3.942   0.235
   15POPC    CB  734   0.457   4.085   0.228
   15POPC    OA  735   0.398   4.116   0.355
   15POPC     P  736   0.349   4.261   0.385
   15POPC    OB  737   0.206   4.242   0.380
   15POPC    OC  738   0.413   4.357   0.296
   15POPC    OD  739   0.394   4.281   0.535
   15POPC    CC  740   0.503   4.220   0.599
   15POPC    CD  741   0.471   4.089   0.667
   15POPC    OE  742   0.393   4.118   0.781
   15POPC   C1A  743   0.327   4.014   0.832
   15POPC    OF  744   0.320   3.899   0.785
   15POPC   C1B  745   0.246   4.069   0.947
   15POPC   C1C  746   0.171   3.965   1.037
   15POPC   C1D  747   0.272   3.901   1.133
   15POPC   C1E  748   0.209   3.828   1.250
   15POPC   C1F  749   0.308   3.740   1.330
   15POPC   C1G  750   0.234   3.699   1.461
   15POPC   C1H  751   0.336   3.643   1.562
   15POPC   C1I  752   0.244   3.586   1.671
   15POPC   C1J  753   0.244   3.619   1.798
   15POPC   C1K  754   0.320   3.723   1.868
   15POPC   C1L  755   0.332   3.717   2.025
   15POPC   C1M  756   0.424   3.599   2.057
   15POPC   C1N  757   0.471   3.588   2.204
   15POPC   C1O  758   0.367   3.616   2.317
   15POPC   C1P  759   0.411   3.588   2.453
   15POPC   C1Q  760   0.507   3.693   2.513
   15POPC   C1R  761   0.568   3.644   2.649
   15POPC    CE  762   0.592   4.007   0.693
   15POPC    OG  763   0.684   4.073   0.782
   15POPC   C2A  764   0.693   4.030   0.905
   15POPC    OH  765   0.640   3.928   0.951
   15POPC   C2B  766   0.781   4.121   0.985
   15POPC   C2C  767   0.734   4.121   1.134
   15POPC   C2D  768   0.801   4.224   1.219
   15POPC   C2E  769   0.760   4.226   1.373
   15POPC   C2F  770   0.832   4.328   1.465
   15POPC   C2G  771   0.786   4.319   1.615
   15POPC   C2H  772   0.843   4.433   1.699
   15POPC   C2I  773   0.794   4.419   1.846
   15POPC   C2J  774   0.827   4.543   1.930
   15POPC   C2K  775   0.753   4.525   2.061
   15POPC   C2L  776   0.789   4.635   2.162
   15POPC   C2M  777   0.681   4.655   2.269
   15POPC   C2N  778   0.739   4.737   2.382
   15POPC   C2O  779   0.636   4.768   2.491
   15POPC   C2P  780   0.692   4.857   2.600
   16POPC   CN1  781   5.497   3.647   0.274
   16POPC   CN2  782   5.347   3.496   0.389
   16POPC   CN3  783   5.354   3.515   0.137
   16POPC   NTM  784   5.360   3.591   0.270
   16POPC    CA  785   5.253   3.707   0.266
   16POPC    CB  786   5.109   3.646   0.254
   16POPC    OA  787   5.085   3.561   0.367
   16POPC     P  788   4.942   3.507   0.394
   16POPC    OB  789   4.960   3.368   0.358
   16POPC    OC  790   4.842   3.587   0.324
   16POPC    OD  791   4.929   3.519   0.550
   16POPC    CC  792   4.994   3.613   0.632
   16POPC    CD  793   5.128   3.569   0.686
   16POPC    OE  794   5.105   3.469   0.783
   16POPC   C1A  795   5.212   3.395   0.813
   16POPC    OF  796   5.323   3.399   0.760
   16POPC   C1B  797   5.162   3.291   0.912
   16POPC   C1C  798   5.270   3.200   0.979
   16POPC   C1D  799   5.340   3.279   1.091
   16POPC   C1E  800   5.419   3.194   1.188
   16POPC   C1F  801   5.510   3.276   1.282
   16POPC   C1G  802   5.558   3.176   1.392
   16POPC   C1H  803   5.619   3.256   1.510
   16POPC   C1I  804   5.682   3.144   1.594
   16POPC   C1J  805   5.656   3.118   1.719
   16POPC   C1K  806   5.556   3.177   1.809
   16POPC   C1L  807   5.569   3.156   1.965
   16POPC   C1M  808   5.690   3.240   2.009
   16POPC   C1N  809   5.709   3.257   2.161
   16POPC   C1O  810   5.686   3.131   2.252
   16POPC   C1P  811   5.722   3.146   2.392
   16POPC   C1Q  812   5.619   3.227   2.476
   16POPC   C1R  813   5.677   3.260   2.620
   16POPC    CE  814   5.213   3.682   0.732
   16POPC    OG  815   5.152   3.754   0.841
   16POPC   C2A  816   5.201   3.738   0.961
   16POPC    OH  817   5.304   3.677   0.989
   16POPC   C2B  818   5.115   3.807   1.062
   16POPC   C2C  819   5.122   3.730   1.197
   16POPC   C2D  820   5.023   3.778   1.300
   16POPC   C2E  821   5.029   3.706   1.442
   16POPC   C2F  822   4.932   3.757   1.552
   16POPC   C2G  823   4.950   3.680   1.688
   16POPC   C2H  824   4.839   3.719   1.788
   16POPC   C2I  825   4.861   3.640   1.921
   16POPC   C2J  826   4.742   3.655   2.016
   16POPC   C2K  827   4.767   3.555   2.128
   16POPC   C2L  828   4.662   3.569   2.240
   16POPC   C2M  829   4.647   3.441   2.323
   16POPC   C2N  830   4.571   3.474   2.450
   16POPC   C2O  831   4.546   3.350   2.536
   16POPC   C2P  832   4.463   3.382   2.660
   17POPC   CN1  833   2.022   2.160   0.294
   17POPC   CN2  834   2.229   2.092   0.397
   17POPC   CN3  835   2.191   2.080   0.147
   17POPC   NTM  836   2.130   2.060   0.286
   17POPC    CA  837   2.070   1.913   0.292
   17POPC    CB  838   2.185   1.808   0.275
   17POPC    OA  839   2.280   1.827   0.382
   17POPC     P  840   2.391   1.720   0.404
   17POPC    OB  841   2.507   1.794   0.357
   17POPC    OC  842   2.356   1.593   0.342
   17POPC    OD  843   2.397   1.710   0.561
   17POPC    CC  844   2.290   1.732   0.650
   17POPC    CD  845   2.278   1.875   0.700
   17POPC    OE  846   2.385   1.900   0.788
   17POPC   C1A  847   2.409   2.029   0.812
   17POPC    OF  848   2.355   2.126   0.759
   17POPC   C1B  849   2.530   2.031   0.902
   17POPC   C1C  850   2.572   2.170   0.960
   17POPC   C1D  851   2.479   2.204   1.078
   17POPC   C1E  852   2.530   2.315   1.168
   17POPC   C1F  853   2.424   2.368   1.268
   17POPC   C1G  854   2.502   2.457   1.369
   17POPC   C1H  855   2.413   2.484   1.492
   17POPC   C1I  856   2.494   2.591   1.567
   17POPC   C1J  857   2.537   2.583   1.690
   17POPC   C1K  858   2.533   2.471   1.785
   17POPC   C1L  859   2.557   2.498   1.938
   17POPC   C1M  860   2.433   2.574   1.988
   17POPC   C1N  861   2.422   2.590   2.142
   17POPC   C1O  862   2.552   2.625   2.221
   17POPC   C1P  863   2.533   2.657   2.362
   17POPC   C1Q  864   2.509   2.534   2.453
   17POPC   C1R  865   2.466   2.578   2.599
   17POPC    CE  866   2.143   1.905   0.754
   17POPC    OG  867   2.111   1.824   0.869
   17POPC   C2A  868   2.114   1.880   0.987
   17POPC    OH  869   2.127   2.000   1.010
   17POPC   C2B  870   2.095   1.777   1.094
   17POPC   C2C  871   2.172   1.822   1.222
   17POPC   C2D  872   2.178   1.716   1.329
   17POPC   C2E  873   2.250   1.757   1.465
   17POPC   C2F  874   2.253   1.652   1.579
   17POPC   C2G  875   2.325   1.705   1.709
   17POPC   C2H  876   2.344   1.593   1.812
   17POPC   C2I  877   2.415   1.651   1.938
   17POPC   C2J  878   2.459   1.541   2.035
   17POPC   C2K  879   2.547   1.610   2.138
   17POPC   C2L  880   2.587   1.513   2.251
   17POPC   C2M  881   2.714   1.556   2.323
   17POPC   C2N  882   2.726   1.479   2.453
   17POPC   C2O  883   2.855   1.511   2.529
   17POPC   C2P  884   2.870   1.427   2.655
   18POPC   CN1  885   1.395   1.709   0.255
   18POPC   CN2  886   1.584   1.732   0.403
   18POPC   CN3  887   1.598   1.782   0.155
   18POPC   NTM  888   1.541   1.689   0.263
   18POPC    CA  889   1.579   1.541   0.225
   18POPC    CB  890   1.735   1.523   0.226
   18POPC    OA  891   1.784   1.554   0.358
   18POPC     P  892   1.931   1.522   0.395
   18POPC    OB  893   1.987   1.656   0.398
   18POPC    OC  894   1.988   1.423   0.304
   18POPC    OD  895   1.919   1.467   0.541
   18POPC    CC  896   1.808   1.400   0.596
   18POPC    CD  897   1.706   1.490   0.663
   18POPC    OE  898   1.763   1.539   0.783
   18POPC   C1A  899   1.703   1.645   0.835
   18POPC    OF  900   1.610   1.710   0.786
   18POPC   C1B  901   1.785   1.683   0.957
   18POPC   C1C  902   1.727   1.796   1.048
   18POPC   C1D  903   1.616   1.737   1.136
   18POPC   C1E  904   1.577   1.822   1.255
   18POPC   C1F  905   1.448   1.776   1.326
   18POPC   C1G  906   1.441   1.856   1.460
   18POPC   C1H  907   1.337   1.791   1.553
   18POPC   C1I  908   1.326   1.895   1.666
   18POPC   C1J  909   1.348   1.872   1.793
   18POPC   C1K  910   1.396   1.751   1.861
   18POPC   C1L  911   1.377   1.737   2.016
   18POPC   C1M  912   1.226   1.715   2.039
   18POPC   C1N  913   1.185   1.673   2.182
   18POPC   C1O  914   1.255   1.745   2.303
   18POPC   C1P  915   1.201   1.715   2.434
   18POPC   C1Q  916   1.241   1.576   2.491
   18POPC   C1R  917   1.160   1.542   2.621
   18POPC    CE  918   1.573   1.426   0.679
   18POPC    OG  919   1.579   1.309   0.763
   18POPC   C2A  920   1.531   1.317   0.884
   18POPC    OH  921   1.467   1.412   0.930
   18POPC   C2B  922   1.561   1.192   0.961
   18POPC   C2C  923   1.576   1.227   1.112
   18POPC   C2D  924   1.628   1.113   1.195
   18POPC   C2E  925   1.640   1.141   1.352
   18POPC   C2F  926   1.688   1.023   1.441
   18POPC   C2G  927   1.694   1.062   1.594
   18POPC   C2H  928   1.760   0.951   1.677
   18POPC   C2I  929   1.764   0.995   1.827
   18POPC   C2J  930   1.850   0.900   1.911
   18POPC   C2K  931   1.864   0.968   2.047
   18POPC   C2L  932   1.936   0.877   2.148
   18POPC   C2M  933   2.000   0.955   2.262
   18POPC   C2N  934   2.036   0.859   2.373
   18POPC   C2O  935   2.108   0.928   2.489
   18POPC   C2P  936   2.151   0.830   2.598
   19POPC   CN1  937   4.339   4.539   0.239
   19POPC   CN2  938   4.477   4.397   0.377
   19POPC   CN3  939   4.484   4.391   0.124
   19POPC   NTM  940   4.396   4.403   0.248
   19POPC    CA  941   4.281   4.295   0.237
   19POPC    CB  942   4.343   4.151   0.238
   19POPC    OA  943   4.416   4.133   0.361
   19POPC     P  944   4.467   3.992   0.400
   19POPC    OB  945   4.609   4.009   0.378
   19POPC    OC  946   4.395   3.888   0.327
   19POPC    OD  947   4.439   3.987   0.554
   19POPC    CC  948   4.336   4.055   0.623
   19POPC    CD  949   4.374   4.192   0.674
   19POPC    OE  950   4.464   4.175   0.782
   19POPC   C1A  951   4.534   4.283   0.815
   19POPC    OF  952   4.535   4.392   0.757
   19POPC   C1B  953   4.627   4.239   0.927
   19POPC   C1C  954   4.710   4.351   0.997
   19POPC   C1D  955   4.619   4.425   1.096
   19POPC   C1E  956   4.693   4.510   1.198
   19POPC   C1F  957   4.602   4.605   1.278
   19POPC   C1G  958   4.689   4.659   1.396
   19POPC   C1H  959   4.597   4.725   1.501
   19POPC   C1I  960   4.700   4.793   1.593
   19POPC   C1J  961   4.713   4.773   1.722
   19POPC   C1K  962   4.645   4.677   1.810
   19POPC   C1L  963   4.649   4.698   1.966
   19POPC   C1M  964   4.561   4.820   1.995
   19POPC   C1N  965   4.528   4.847   2.144
   19POPC   C1O  966   4.644   4.829   2.248
   19POPC   C1P  967   4.614   4.872   2.384
   19POPC   C1Q  968   4.525   4.773   2.464
   19POPC   C1R  969   4.477   4.837   2.600
   19POPC    CE  970   4.256   4.278   0.704
   19POPC    OG  971   4.174   4.221   0.808
   19POPC   C2A  972   4.177   4.277   0.926
   19POPC    OH  973   4.234   4.382   0.956
   19POPC   C2B  974   4.098   4.195   1.024
   19POPC   C2C  975   4.161   4.210   1.166
   19POPC   C2D  976   4.102   4.115   1.267
   19POPC   C2E  977   4.159   4.129   1.416
   19POPC   C2F  978   4.097   4.037   1.524
   19POPC   C2G  979   4.159   4.062   1.667
   19POPC   C2H  980   4.110   3.956   1.768
   19POPC   C2I  981   4.175   3.985   1.907
   19POPC   C2J  982   4.150   3.871   2.006
   19POPC   C2K  983   4.238   3.902   2.126
   19POPC   C2L  984   4.212   3.802   2.241
   19POPC   C2M  985   4.331   3.792   2.338
   19POPC   C2N  986   4.285   3.723   2.464
   19POPC   C2O  987   4.399   3.703   2.564
   19POPC   C2P  988   4.354   3.625   2.688
   20POPC   CN1  989   4.067   6.220   0.317
   20POPC   CN2  990   3.977   6.031   0.438
   20POPC   CN3  991   4.014   6.028   0.187
   20POPC   NTM  992   3.968   6.110   0.308
   20POPC    CA  993   3.825   6.169   0.275
   20POPC    CB  994   3.723   6.051   0.258
   20POPC    OA  995   3.719   5.975   0.380
   20POPC     P  996   3.608   5.867   0.400
   20POPC    OB  997   3.687   5.746   0.387
   20POPC    OC  998   3.496   5.890   0.310
   20POPC    OD  999   3.568   5.887   0.551
   20POPC    CC 1000   3.574   6.007   0.623
   20POPC    CD 1001   3.705   6.030   0.697
   20POPC    OE 1002   3.711   5.939   0.805
   20POPC   C1A 1003   3.832   5.921   0.856
   20POPC    OF 1004   3.939   5.967   0.815
   20POPC   C1B 1005   3.816   5.816   0.964
   20POPC   C1C 1006   3.940   5.786   1.054
   20POPC   C1D 1007   3.952   5.898   1.159
   20POPC   C1E 1008   4.043   5.864   1.276
   20POPC   C1F 1009   4.077   5.986   1.365
   20POPC   C1G 1010   4.145   5.927   1.493
   20POPC   C1H 1011   4.148   6.036   1.603
   20POPC   C1I 1012   4.239   5.970   1.709
   20POPC   C1J 1013   4.206   5.946   1.833
   20POPC   C1K 1014   4.078   5.965   1.903
   20POPC   C1L 1015   4.075   5.966   2.060
   20POPC   C1M 1016   4.142   6.098   2.103
   20POPC   C1N 1017   4.129   6.135   2.253
   20POPC   C1O 1018   4.146   6.020   2.358
   20POPC   C1P 1019   4.150   6.062   2.498
   20POPC   C1Q 1020   4.012   6.099   2.558
   20POPC   C1R 1021   4.028   6.166   2.700
   20POPC    CE 1022   3.727   6.172   0.733
   20POPC    OG 1023   3.626   6.221   0.823
   20POPC   C2A 1024   3.658   6.239   0.949
   20POPC    OH 1025   3.772   6.231   0.997
   20POPC   C2B 1026   3.537   6.273   1.030
   20POPC   C2C 1027   3.555   6.220   1.175
   20POPC   C2D 1028   3.430   6.230   1.259
   20POPC   C2E 1029   3.444   6.181   1.410
   20POPC   C2F 1030   3.319   6.195   1.501
   20POPC   C2G 1031   3.345   6.147   1.648
   20POPC   C2H 1032   3.215   6.143   1.730
   20POPC   C2I 1033   3.246   6.094   1.875
   20POPC   C2J 1034   3.118   6.065   1.954
   20POPC   C2K 1035   3.165   5.997   2.082
   20POPC   C2L 1036   3.047   5.975   2.179
   20POPC   C2M 1037   3.074   5.861   2.278
   20POPC   C2N 1038   2.973   5.870   2.391
   20POPC   C2O 1039   2.988   5.756   2.492
   20POPC   C2P 1040   2.881   5.760   2.600
   21POPC   CN1 1041   4.536   1.955   0.233
   21POPC   CN2 1042   4.385   2.080   0.374
   21POPC   CN3 1043   4.355   2.062   0.123
   21POPC   NTM 1044   4.455   2.078   0.238
   21POPC    CA 1045   4.545   2.204   0.208
   21POPC    CB 1046   4.456   2.333   0.206
   21POPC    OA 1047   4.392   2.348   0.333
   21POPC     P 1048   4.317   2.480   0.368
   21POPC    OB 1049   4.180   2.434   0.361
   21POPC    OC 1050   4.361   2.589   0.281
   21POPC    OD 1051   4.358   2.504   0.517
   21POPC    CC 1052   4.477   2.463   0.580
   21POPC    CD 1053   4.471   2.326   0.644
   21POPC    OE 1054   4.390   2.336   0.759
   21POPC   C1A 1055   4.345   2.220   0.807
   21POPC    OF 1056   4.360   2.108   0.756
   21POPC   C1B 1057   4.255   2.255   0.924
   21POPC   C1C 1058   4.202   2.136   1.010
   21POPC   C1D 1059   4.313   2.090   1.104
   21POPC   C1E 1060   4.266   2.002   1.219
   21POPC   C1F 1061   4.381   1.933   1.296
   21POPC   C1G 1062   4.316   1.874   1.425
   21POPC   C1H 1063   4.428   1.836   1.525
   21POPC   C1I 1064   4.349   1.759   1.632
   21POPC   C1J 1065   4.344   1.788   1.760
   21POPC   C1K 1066   4.399   1.902   1.833
   21POPC   C1L 1067   4.412   1.894   1.990
   21POPC   C1M 1068   4.525   1.794   2.018
   21POPC   C1N 1069   4.575   1.788   2.165
   21POPC   C1O 1070   4.468   1.793   2.279
   21POPC   C1P 1071   4.517   1.769   2.413
   21POPC   C1Q 1072   4.591   1.889   2.477
   21POPC   C1R 1073   4.662   1.848   2.612
   21POPC    CE 1074   4.605   2.267   0.668
   21POPC    OG 1075   4.684   2.347   0.758
   21POPC   C2A 1076   4.702   2.303   0.880
   21POPC    OH 1077   4.669   2.192   0.923
   21POPC   C2B 1078   4.772   2.406   0.963
   21POPC   C2C 1079   4.726   2.393   1.111
   21POPC   C2D 1080   4.773   2.505   1.200
   21POPC   C2E 1081   4.733   2.494   1.354
   21POPC   C2F 1082   4.785   2.606   1.449
   21POPC   C2G 1083   4.742   2.583   1.598
   21POPC   C2H 1084   4.777   2.704   1.686
   21POPC   C2I 1085   4.732   2.676   1.833
   21POPC   C2J 1086   4.742   2.801   1.920
   21POPC   C2K 1087   4.673   2.765   2.051
   21POPC   C2L 1088   4.688   2.877   2.155
   21POPC   C2M 1089   4.579   2.874   2.262
   21POPC   C2N 1090   4.621   2.961   2.378
   21POPC   C2O 1091   4.514   2.968   2.487
   21POPC   C2P 1092   4.553   3.063   2.600
   22POPC   CN1 1093   0.502   0.809   0.311
   22POPC   CN2 1094   0.310   0.885   0.435
   22POPC   CN3 1095   0.304   0.847   0.185
   22POPC   NTM 1096   0.385   0.899   0.304
   22POPC    CA 1097   0.432   1.046   0.270
   22POPC    CB 1098   0.307   1.139   0.255
   22POPC    OA 1099   0.233   1.138   0.378
   22POPC     P 1100   0.117   1.240   0.400
   22POPC    OB 1101   0.003   1.152   0.390
   22POPC    OC 1102   0.130   1.353   0.309
   22POPC    OD 1103   0.138   1.282   0.550
   22POPC    CC 1104   0.259   1.285   0.620
   22POPC    CD 1105   0.293   1.157   0.693
   22POPC    OE 1106   0.205   1.145   0.803
   22POPC   C1A 1107   0.198   1.023   0.856
   22POPC    OF 1108   0.251   0.919   0.813
   22POPC   C1B 1109   0.094   1.032   0.965
   22POPC   C1C 1110   0.075   0.906   1.056
   22POPC   C1D 1111   0.190   0.902   1.159
   22POPC   C1E 1112   0.166   0.809   1.276
   22POPC   C1F 1113   0.291   0.785   1.363
   22POPC   C1G 1114   0.240   0.714   1.493
   22POPC   C1H 1115   0.351   0.719   1.600
   22POPC   C1I 1116   0.294   0.624   1.708
   22POPC   C1J 1117   0.271   0.655   1.833
   22POPC   C1K 1118   0.281   0.785   1.901
   22POPC   C1L 1119   0.285   0.789   2.059
   22POPC   C1M 1120   0.423   0.732   2.099
   22POPC   C1N 1121   0.461   0.749   2.248
   22POPC   C1O 1122   0.350   0.723   2.356
   22POPC   C1P 1123   0.396   0.723   2.494
   22POPC   C1Q 1124   0.423   0.863   2.553
   22POPC   C1R 1125   0.494   0.853   2.694
   22POPC    CE 1126   0.438   1.146   0.727
   22POPC    OG 1127   0.480   1.251   0.816
   22POPC   C2A 1128   0.503   1.220   0.942
   22POPC    OH 1129   0.505   1.107   0.989
   22POPC   C2B 1130   0.530   1.344   1.021
   22POPC   C2C 1131   0.480   1.323   1.168
   22POPC   C2D 1132   0.483   1.448   1.251
   22POPC   C2E 1133   0.438   1.432   1.403
   22POPC   C2F 1134   0.445   1.558   1.493
   22POPC   C2G 1135   0.401   1.529   1.642
   22POPC   C2H 1136   0.390   1.658   1.723
   22POPC   C2I 1137   0.346   1.624   1.869
   22POPC   C2J 1138   0.309   1.750   1.949
   22POPC   C2K 1139   0.247   1.699   2.078
   22POPC   C2L 1140   0.218   1.814   2.175
   22POPC   C2M 1141   0.109   1.780   2.277
   22POPC   C2N 1142   0.112   1.881   2.389
   22POPC   C2O 1143   0.002   1.858   2.492
   22POPC   C2P 1144   0.000   1.965   2.600
   23POPC   CN1 1145   2.473   4.007   0.278
   23POPC   CN2 1146   2.298   4.127   0.393
   23POPC   CN3 1147   2.320   4.126   0.141
   23POPC   NTM 1148   2.394   4.132   0.275
   23POPC    CA 1149   2.490   4.258   0.272
   23POPC    CB 1150   2.404   4.389   0.260
   23POPC    OA 1151   2.316   4.396   0.373
   23POPC     P 1152   2.237   4.528   0.400
   23POPC    OB 1153   2.103   4.486   0.363
   23POPC    OC 1154   2.299   4.641   0.332
   23POPC    OD 1155   2.245   4.541   0.556
   23POPC    CC 1156   2.349   4.493   0.639
   23POPC    CD 1157   2.328   4.353   0.691
   23POPC    OE 1158   2.225   4.357   0.788
   23POPC   C1A 1159   2.171   4.239   0.817
   23POPC    OF 1160   2.195   4.130   0.763
   23POPC   C1B 1161   2.059   4.268   0.915
   23POPC   C1C 1162   1.988   4.146   0.980
   23POPC   C1D 1163   2.077   4.090   1.092
   23POPC   C1E 1164   2.007   3.997   1.188
   23POPC   C1F 1165   2.103   3.920   1.282
   23POPC   C1G 1166   2.012   3.854   1.391
   23POPC   C1H 1167   2.101   3.807   1.509
   23POPC   C1I 1168   2.000   3.725   1.592
   23POPC   C1J 1169   1.969   3.746   1.717
   23POPC   C1K 1170   2.009   3.853   1.808
   23POPC   C1L 1171   1.990   3.835   1.963
   23POPC   C1M 1172   2.093   3.731   2.008
   23POPC   C1N 1173   2.112   3.714   2.160
   23POPC   C1O 1174   1.983   3.714   2.250
   23POPC   C1P 1175   2.003   3.680   2.390
   23POPC   C1Q 1176   2.064   3.794   2.475
   23POPC   C1R 1177   2.105   3.743   2.618
   23POPC    CE 1178   2.454   4.289   0.738
   23POPC    OG 1179   2.514   4.361   0.848
   23POPC   C2A 1180   2.506   4.309   0.967
   23POPC    OH 1181   2.464   4.196   0.995
   23POPC   C2B 1182   2.558   4.405   1.070
   23POPC   C2C 1183   2.482   4.383   1.204
   23POPC   C2D 1184   2.511   4.488   1.308
   23POPC   C2E 1185   2.440   4.468   1.450
   23POPC   C2F 1186   2.472   4.572   1.560
   23POPC   C2G 1187   2.399   4.540   1.696
   23POPC   C2H 1188   2.416   4.654   1.797
   23POPC   C2I 1189   2.341   4.618   1.929
   23POPC   C2J 1190   2.334   4.737   2.025
   23POPC   C2K 1191   2.239   4.694   2.136
   23POPC   C2L 1192   2.234   4.799   2.248
   23POPC   C2M 1193   2.105   4.791   2.331
   23POPC   C2N 1194   2.123   4.870   2.458
   23POPC   C2O 1195   1.996   4.872   2.544
   23POPC   C2P 1196   2.012   4.959   2.668
   24POPC   CN1 1197   3.291   0.512   0.267
   24POPC   CN2 1198   3.177   0.334   0.384
   24POPC   CN3 1199   3.173   0.358   0.132
   24POPC   NTM 1200   3.168   0.431   0.266
   24POPC    CA 1201   3.040   0.524   0.267
   24POPC    CB 1202   2.911   0.437   0.257
   24POPC    OA 1203   2.907   0.347   0.370
   24POPC     P 1204   2.778   0.266   0.399
   24POPC    OB 1205   2.821   0.133   0.360
   24POPC    OC 1206   2.662   0.326   0.333
   24POPC    OD 1207   2.767   0.273   0.555
   24POPC    CC 1208   2.815   0.377   0.637
   24POPC    CD 1209   2.957   0.359   0.687
   24POPC    OE 1210   2.957   0.255   0.783
   24POPC   C1A 1211   3.076   0.203   0.809
   24POPC    OF 1212   3.183   0.229   0.753
   24POPC   C1B 1213   3.051   0.090   0.907
   24POPC   C1C 1214   3.176   0.021   0.969
   24POPC   C1D 1215   3.232   0.111   1.081
   24POPC   C1E 1216   3.329   0.041   1.174
   24POPC   C1F 1217   3.405   0.138   1.268
   24POPC   C1G 1218   3.475   0.048   1.375
   24POPC   C1H 1219   3.523   0.137   1.492
   24POPC   C1I 1220   3.609   0.038   1.572
   24POPC   C1J 1221   3.591   0.005   1.698
   24POPC   C1K 1222   3.485   0.043   1.791
   24POPC   C1L 1223   3.506   0.023   1.946
   24POPC   C1M 1224   3.610   0.128   1.989
   24POPC   C1N 1225   3.629   0.146   2.141
   24POPC   C1O 1226   3.634   0.017   2.230
   24POPC   C1P 1227   3.670   0.037   2.369
   24POPC   C1Q 1228   3.556   0.095   2.457
   24POPC   C1R 1229   3.611   0.137   2.600
   24POPC    CE 1230   3.019   0.486   0.733
   24POPC    OG 1231   2.948   0.544   0.845
   24POPC   C2A 1232   3.003   0.535   0.963
   24POPC    OH 1233   3.117   0.496   0.988
   24POPC   C2B 1234   2.908   0.585   1.068
   24POPC   C2C 1235   2.935   0.509   1.201
   24POPC   C2D 1236   2.831   0.536   1.307
   24POPC   C2E 1237   2.855   0.465   1.448
   24POPC   C2F 1238   2.753   0.494   1.561
   24POPC   C2G 1239   2.789   0.421   1.696
   24POPC   C2H 1240   2.677   0.436   1.799
   24POPC   C2I 1241   2.717   0.361   1.930
   24POPC   C2J 1242   2.600   0.351   2.028
   24POPC   C2K 1243   2.647   0.256   2.138
   24POPC   C2L 1244   2.545   0.249   2.252
   24POPC   C2M 1245   2.557   0.119   2.334
   24POPC   C2N 1246   2.480   0.135   2.463
   24POPC   C2O 1247   2.482   0.008   2.548
   24POPC   C2P 1248   2.397   0.021   2.674
   25POPC   CN1 1249   4.772   2.456   0.259
   25POPC   CN2 1250   4.576   2.499   0.395
   25POPC   CN3 1251   4.568   2.487   0.142
   25POPC   NTM 1252   4.647   2.534   0.264
   25POPC    CA 1253   4.678   2.688   0.245
   25POPC    CB 1254   4.544   2.770   0.242
   25POPC    OA 1255   4.474   2.749   0.365
   25POPC     P 1256   4.350   2.836   0.400
   25POPC    OB 1257   4.245   2.739   0.383
   25POPC    OC 1258   4.349   2.959   0.321
   25POPC    OD 1259   4.371   2.865   0.553
   25POPC    CC 1260   4.493   2.872   0.621
   25POPC    CD 1261   4.541   2.741   0.680
   25POPC    OE 1262   4.458   2.709   0.789
   25POPC   C1A 1263   4.463   2.582   0.829
   25POPC    OF 1264   4.525   2.490   0.775
   25POPC   C1B 1265   4.362   2.570   0.941
   25POPC   C1C 1266   4.358   2.434   1.018
   25POPC   C1D 1267   4.475   2.431   1.118
   25POPC   C1E 1268   4.463   2.325   1.226
   25POPC   C1F 1269   4.593   2.304   1.308
   25POPC   C1G 1270   4.552   2.216   1.430
   25POPC   C1H 1271   4.665   2.220   1.535
   25POPC   C1I 1272   4.621   2.111   1.633
   25POPC   C1J 1273   4.598   2.126   1.761
   25POPC   C1K 1274   4.598   2.248   1.843
   25POPC   C1L 1275   4.606   2.237   2.000
   25POPC   C1M 1276   4.749   2.190   2.032
   25POPC   C1N 1277   4.791   2.195   2.181
   25POPC   C1O 1278   4.686   2.148   2.287
   25POPC   C1P 1279   4.734   2.138   2.424
   25POPC   C1Q 1280   4.750   2.274   2.497
   25POPC   C1R 1281   4.826   2.256   2.634
   25POPC    CE 1282   4.687   2.741   0.710
   25POPC    OG 1283   4.722   2.840   0.809
   25POPC   C2A 1284   4.751   2.799   0.929
   25POPC    OH 1285   4.765   2.682   0.965
   25POPC   C2B 1286   4.768   2.916   1.021
   25POPC   C2C 1287   4.725   2.876   1.165
   25POPC   C2D 1288   4.718   2.991   1.261
   25POPC   C2E 1289   4.679   2.955   1.412
   25POPC   C2F 1290   4.676   3.072   1.514
   25POPC   C2G 1291   4.640   3.023   1.660
   25POPC   C2H 1292   4.618   3.142   1.754
   25POPC   C2I 1293   4.582   3.089   1.896
   25POPC   C2J 1294   4.536   3.201   1.989
   25POPC   C2K 1295   4.482   3.132   2.114
   25POPC   C2L 1296   4.445   3.234   2.223
   25POPC   C2M 1297   4.343   3.178   2.322
   25POPC   C2N 1298   4.339   3.268   2.444
   25POPC   C2O 1299   4.234   3.224   2.547
   25POPC   C2P 1300   4.226   3.319   2.665
   26POPC   CN1 1301   4.865   3.024   0.288
   26POPC   CN2 1302   4.651   3.061   0.394
   26POPC   CN3 1303   4.685   3.076   0.143
   26POPC   NTM 1304   4.743   3.107   0.281
   26POPC    CA 1305   4.781   3.261   0.285
   26POPC    CB 1306   4.651   3.348   0.269
   26POPC    OA 1307   4.561   3.316   0.377
   26POPC     P 1308   4.435   3.405   0.400
   26POPC    OB 1309   4.332   3.314   0.355
   26POPC    OC 1310   4.450   3.535   0.336
   26POPC    OD 1311   4.430   3.416   0.557
   26POPC    CC 1312   4.540   3.411   0.644
   26POPC    CD 1313   4.575   3.272   0.695
   26POPC    OE 1314   4.473   3.232   0.785
   26POPC   C1A 1315   4.469   3.101   0.810
   26POPC    OF 1316   4.537   3.013   0.757
   26POPC   C1B 1317   4.350   3.081   0.902
   26POPC   C1C 1318   4.331   2.938   0.962
   26POPC   C1D 1319   4.429   2.920   1.079
   26POPC   C1E 1320   4.397   2.803   1.170
   26POPC   C1F 1321   4.510   2.768   1.269
   26POPC   C1G 1322   4.448   2.669   1.372
   26POPC   C1H 1323   4.542   2.658   1.495
   26POPC   C1I 1324   4.479   2.540   1.571
   26POPC   C1J 1325   4.436   2.543   1.694
   26POPC   C1K 1326   4.425   2.655   1.788
   26POPC   C1L 1327   4.406   2.626   1.942
   26POPC   C1M 1328   4.541   2.570   1.991
   26POPC   C1N 1329   4.556   2.557   2.145
   26POPC   C1O 1330   4.434   2.504   2.226
   26POPC   C1P 1331   4.459   2.477   2.367
   26POPC   C1Q 1332   4.465   2.603   2.457
   26POPC   C1R 1333   4.516   2.568   2.602
   26POPC    CE 1334   4.713   3.262   0.748
   26POPC    OG 1335   4.733   3.349   0.862
   26POPC   C2A 1336   4.740   3.294   0.980
   26POPC    OH 1337   4.746   3.173   1.005
   26POPC   C2B 1338   4.745   3.400   1.086
   26POPC   C2C 1339   4.677   3.346   1.216
   26POPC   C2D 1340   4.657   3.450   1.322
   26POPC   C2E 1341   4.593   3.400   1.459
   26POPC   C2F 1342   4.576   3.505   1.572
   26POPC   C2G 1343   4.515   3.443   1.703
   26POPC   C2H 1344   4.480   3.552   1.806
   26POPC   C2I 1345   4.419   3.485   1.933
   26POPC   C2J 1346   4.361   3.589   2.029
   26POPC   C2K 1347   4.285   3.508   2.134
   26POPC   C2L 1348   4.233   3.599   2.247
   26POPC   C2M 1349   4.114   3.538   2.322
   26POPC   C2N 1350   4.093   3.614   2.451
   26POPC   C2O 1351   3.971   3.563   2.529
   26POPC   C2P 1352   3.945   3.645   2.654
   27POPC   CN1 1353   6.279   3.943   0.262
   27POPC   CN2 1354   6.069   3.900   0.374
   27POPC   CN3 1355   6.092   3.900   0.122
   27POPC   NTM 1356   6.133   3.967   0.253
   27POPC    CA 1357   6.104   4.122   0.241
   27POPC    CB 1358   5.950   4.145   0.223
   27POPC    OA 1359   5.882   4.092   0.337
   27POPC     P 1360   5.731   4.122   0.358
   27POPC    OB 1361   5.673   3.993   0.327
   27POPC    OC 1362   5.690   4.240   0.282
   27POPC    OD 1363   5.722   4.147   0.513
   27POPC    CC 1364   5.825   4.197   0.595
   27POPC    CD 1365   5.913   4.091   0.657
   27POPC    OE 1366   5.839   4.023   0.756
   27POPC   C1A 1367   5.889   3.906   0.793
   27POPC    OF 1368   5.987   3.848   0.746
   27POPC   C1B 1369   5.789   3.849   0.892
   27POPC   C1C 1370   5.831   3.718   0.966
   27POPC   C1D 1371   5.929   3.754   1.080
   27POPC   C1E 1372   5.948   3.645   1.183
   27POPC   C1F 1373   6.066   3.670   1.279
   27POPC   C1G 1374   6.051   3.566   1.394
   27POPC   C1H 1375   6.142   3.607   1.513
   27POPC   C1I 1376   6.133   3.483   1.603
   27POPC   C1J 1377   6.094   3.481   1.727
   27POPC   C1K 1378   6.038   3.588   1.810
   27POPC   C1L 1379   6.034   3.571   1.967
   27POPC   C1M 1380   6.179   3.581   2.015
   27POPC   C1N 1381   6.200   3.592   2.168
   27POPC   C1O 1382   6.111   3.502   2.260
   27POPC   C1P 1383   6.146   3.503   2.402
   27POPC   C1Q 1384   6.099   3.630   2.478
   27POPC   C1R 1385   6.161   3.634   2.623
   27POPC    CE 1386   6.044   4.145   0.704
   27POPC    OG 1387   6.027   4.244   0.808
   27POPC   C2A 1388   6.057   4.210   0.931
   27POPC    OH 1389   6.112   4.105   0.966
   27POPC   C2B 1390   6.017   4.319   1.026
   27POPC   C2C 1391   5.979   4.256   1.163
   27POPC   C2D 1392   5.918   4.354   1.259
   27POPC   C2E 1393   5.881   4.297   1.404
   27POPC   C2F 1394   5.822   4.396   1.507
   27POPC   C2G 1395   5.793   4.329   1.646
   27POPC   C2H 1396   5.717   4.424   1.739
   27POPC   C2I 1397   5.690   4.353   1.875
   27POPC   C2J 1398   5.594   4.433   1.964
   27POPC   C2K 1399   5.559   4.340   2.080
   27POPC   C2L 1400   5.475   4.413   2.186
   27POPC   C2M 1401   5.392   4.317   2.272
   27POPC   C2N 1402   5.342   4.391   2.394
   27POPC   C2O 1403   5.252   4.303   2.482
   27POPC   C2P 1404   5.195   4.380   2.600
   28POPC   CN1 1405   0.594   3.262   0.261
   28POPC   CN2 1406   0.549   3.467   0.380
   28POPC   CN3 1407   0.564   3.457   0.128
   28POPC   NTM 1408   0.622   3.407   0.261
   28POPC    CA 1409   0.778   3.432   0.259
   28POPC    CB 1410   0.807   3.586   0.250
   28POPC    OA 1411   0.748   3.651   0.364
   28POPC     P 1412   0.782   3.800   0.394
   28POPC    OB 1413   0.656   3.862   0.358
   28POPC    OC 1414   0.905   3.840   0.327
   28POPC    OD 1415   0.798   3.800   0.550
   28POPC    CC 1416   0.840   3.692   0.630
   28POPC    CD 1417   0.728   3.604   0.682
   28POPC    OE 1418   0.656   3.676   0.779
   28POPC   C1A 1419   0.536   3.628   0.808
   28POPC    OF 1420   0.478   3.534   0.752
   28POPC   C1B 1421   0.475   3.724   0.908
   28POPC   C1C 1422   0.339   3.683   0.972
   28POPC   C1D 1423   0.366   3.579   1.082
   28POPC   C1E 1424   0.251   3.558   1.178
   28POPC   C1F 1425   0.267   3.435   1.270
   28POPC   C1G 1426   0.156   3.447   1.380
   28POPC   C1H 1427   0.188   3.350   1.495
   28POPC   C1I 1428   0.059   3.358   1.578
   28POPC   C1J 1429   0.051   3.392   1.704
   28POPC   C1K 1430   0.154   3.440   1.796
   28POPC   C1L 1431   0.128   3.437   1.952
   28POPC   C1M 1432   0.131   3.289   1.993
   28POPC   C1N 1433   0.133   3.261   2.145
   28POPC   C1O 1434   0.040   3.348   2.236
   28POPC   C1P 1435   0.032   3.307   2.376
   28POPC   C1Q 1436   0.155   3.346   2.461
   28POPC   C1R 1437   0.149   3.277   2.603
   28POPC    CE 1438   0.775   3.470   0.725
   28POPC    OG 1439   0.868   3.479   0.835
   28POPC   C2A 1440   0.826   3.444   0.954
   28POPC    OH 1441   0.719   3.391   0.981
   28POPC   C2B 1442   0.930   3.476   1.057
   28POPC   C2C 1443   0.861   3.509   1.192
   28POPC   C2D 1444   0.954   3.563   1.297
   28POPC   C2E 1445   0.890   3.595   1.439
   28POPC   C2F 1446   0.985   3.645   1.551
   28POPC   C2G 1447   0.910   3.670   1.687
   28POPC   C2H 1448   1.002   3.738   1.789
   28POPC   C2I 1449   0.923   3.761   1.922
   28POPC   C2J 1450   1.000   3.851   2.020
   28POPC   C2K 1451   0.902   3.883   2.132
   28POPC   C2L 1452   0.971   3.960   2.246
   28POPC   C2M 1453   0.872   4.041   2.330
   28POPC   C2N 1454   0.940   4.083   2.458
   28POPC   C2O 1455   0.850   4.171   2.546
   28POPC   C2P 1456   0.921   4.220   2.671
   29POPC   CN1 1457   3.053   4.526   0.285
   29POPC   CN2 1458   3.110   4.315   0.386
   29POPC   CN3 1459   3.084   4.344   0.136
   29POPC   NTM 1460   3.030   4.381   0.274
   29POPC    CA 1461   2.875   4.350   0.276
   29POPC    CB 1462   2.852   4.196   0.256
   29POPC    OA 1463   2.917   4.126   0.363
   29POPC     P 1464   2.890   3.974   0.383
   29POPC    OB 1465   3.016   3.919   0.337
   29POPC    OC 1466   2.766   3.933   0.317
   29POPC    OD 1467   2.881   3.961   0.539
   29POPC    CC 1468   2.838   4.060   0.629
   29POPC    CD 1469   2.949   4.149   0.682
   29POPC    OE 1470   3.027   4.073   0.771
   29POPC   C1A 1471   3.147   4.123   0.799
   29POPC    OF 1472   3.199   4.223   0.748
   29POPC   C1B 1473   3.214   4.022   0.889
   29POPC   C1C 1474   3.352   4.064   0.951
   29POPC   C1D 1475   3.326   4.158   1.070
   29POPC   C1E 1476   3.444   4.176   1.162
   29POPC   C1F 1477   3.427   4.291   1.264
   29POPC   C1G 1478   3.542   4.275   1.368
   29POPC   C1H 1479   3.512   4.362   1.492
   29POPC   C1I 1480   3.645   4.353   1.569
   29POPC   C1J 1481   3.659   4.310   1.692
   29POPC   C1K 1482   3.561   4.251   1.783
   29POPC   C1L 1483   3.594   4.243   1.937
   29POPC   C1M 1484   3.587   4.387   1.990
   29POPC   C1N 1485   3.590   4.403   2.144
   29POPC   C1O 1486   3.690   4.313   2.224
   29POPC   C1P 1487   3.703   4.345   2.366
   29POPC   C1Q 1488   3.585   4.295   2.453
   29POPC   C1R 1489   3.594   4.353   2.600
   29POPC    CE 1490   2.898   4.277   0.738
   29POPC    OG 1491   2.810   4.257   0.850
   29POPC   C2A 1492   2.856   4.284   0.970
   29POPC    OH 1493   2.963   4.339   0.996
   29POPC   C2B 1494   2.757   4.241   1.074
   29POPC   C2C 1495   2.833   4.200   1.203
   29POPC   C2D 1496   2.746   4.135   1.307
   29POPC   C2E 1497   2.818   4.095   1.444
   29POPC   C2F 1498   2.729   4.032   1.555
   29POPC   C2G 1499   2.810   4.000   1.686
   29POPC   C2H 1500   2.725   3.921   1.786
   29POPC   C2I 1501   2.811   3.891   1.914
   29POPC   C2J 1502   2.740   3.792   2.007
   29POPC   C2K 1503   2.844   3.755   2.112
   29POPC   C2L 1504   2.783   3.667   2.222
   29POPC   C2M 1505   2.888   3.584   2.296
   29POPC   C2N 1506   2.827   3.529   2.424
   29POPC   C2O 1507   2.924   3.439   2.500
   29POPC   C2P 1508   2.859   3.378   2.624
   30POPC   CN1 1509   1.457   3.771   0.255
   30POPC   CN2 1510   1.321   3.903   0.405
   30POPC   CN3 1511   1.272   3.883   0.157
   30POPC   NTM 1512   1.380   3.897   0.265
   30POPC    CA 1513   1.472   4.020   0.226
   30POPC    CB 1514   1.388   4.152   0.229
   30POPC    OA 1515   1.334   4.170   0.360
   30POPC     P 1516   1.266   4.305   0.398
   30POPC    OB 1517   1.127   4.263   0.403
   30POPC    OC 1518   1.307   4.411   0.307
   30POPC    OD 1519   1.318   4.329   0.545
   30POPC    CC 1520   1.440   4.285   0.598
   30POPC    CD 1521   1.434   4.149   0.665
   30POPC    OE 1522   1.362   4.162   0.786
   30POPC   C1A 1523   1.317   4.048   0.838
   30POPC    OF 1524   1.325   3.935   0.788
   30POPC   C1B 1525   1.238   4.088   0.960
   30POPC   C1C 1526   1.187   3.972   1.051
   30POPC   C1D 1527   1.304   3.922   1.139
   30POPC   C1E 1528   1.262   3.838   1.257
   30POPC   C1F 1529   1.380   3.766   1.327
   30POPC   C1G 1530   1.323   3.710   1.461
   30POPC   C1H 1531   1.440   3.670   1.553
   30POPC   C1I 1532   1.367   3.596   1.666
   30POPC   C1J 1533   1.372   3.626   1.794
   30POPC   C1K 1534   1.436   3.740   1.861
   30POPC   C1L 1535   1.460   3.733   2.017
   30POPC   C1M 1536   1.572   3.630   2.038
   30POPC   C1N 1537   1.632   3.623   2.181
   30POPC   C1O 1538   1.533   3.633   2.302
   30POPC   C1P 1539   1.591   3.609   2.433
   30POPC   C1Q 1540   1.674   3.727   2.489
   30POPC   C1R 1541   1.753   3.685   2.619
   30POPC    CE 1542   1.568   4.086   0.679
   30POPC    OG 1543   1.656   4.164   0.763
   30POPC   C2A 1544   1.681   4.120   0.884
   30POPC    OH 1545   1.648   4.011   0.930
   30POPC   C2B 1546   1.760   4.222   0.960
   30POPC   C2C 1547   1.724   4.212   1.112
   30POPC   C2D 1548   1.781   4.323   1.195
   30POPC   C2E 1549   1.753   4.315   1.352
   30POPC   C2F 1550   1.815   4.426   1.441
   30POPC   C2G 1551   1.782   4.406   1.594
   30POPC   C2H 1552   1.828   4.527   1.677
   30POPC   C2I 1553   1.792   4.502   1.827
   30POPC   C2J 1554   1.813   4.628   1.912
   30POPC   C2K 1555   1.752   4.595   2.048
   30POPC   C2L 1556   1.779   4.708   2.149
   30POPC   C2M 1557   1.678   4.709   2.264
   30POPC   C2N 1558   1.731   4.797   2.375
   30POPC   C2O 1559   1.633   4.808   2.492
   30POPC   C2P 1560   1.683   4.903   2.600
   31POPC   CN1 1561   4.389   1.114   0.333
   31POPC   CN2 1562   4.313   0.906   0.431
   31POPC   CN3 1563   4.327   0.943   0.181
   31POPC   NTM 1564   4.291   1.004   0.316
   31POPC    CA 1565   4.144   1.063   0.306
   31POPC    CB 1566   4.043   0.947   0.280
   31POPC    OA 1567   4.051   0.852   0.388
   31POPC     P 1568   3.944   0.740   0.400
   31POPC    OB 1569   4.024   0.625   0.362
   31POPC    OC 1570   3.824   0.773   0.325
   31POPC    OD 1571   3.918   0.735   0.555
   31POPC    CC 1572   3.929   0.843   0.645
   31POPC    CD 1573   4.066   0.857   0.709
   31POPC    OE 1574   4.082   0.751   0.800
   31POPC   C1A 1575   4.208   0.729   0.838
   31POPC    OF 1576   4.310   0.784   0.795
   31POPC   C1B 1577   4.203   0.608   0.929
   31POPC   C1C 1578   4.335   0.568   1.002
   31POPC   C1D 1579   4.356   0.662   1.122
   31POPC   C1E 1580   4.457   0.613   1.223
   31POPC   C1F 1581   4.498   0.720   1.327
   31POPC   C1G 1582   4.577   0.644   1.438
   31POPC   C1H 1583   4.589   0.735   1.562
   31POPC   C1I 1584   4.690   0.656   1.648
   31POPC   C1J 1585   4.669   0.613   1.770
   31POPC   C1K 1586   4.548   0.617   1.852
   31POPC   C1L 1587   4.559   0.593   2.008
   31POPC   C1M 1588   4.627   0.719   2.065
   31POPC   C1N 1589   4.627   0.731   2.219
   31POPC   C1O 1590   4.655   0.603   2.303
   31POPC   C1P 1591   4.672   0.623   2.447
   31POPC   C1Q 1592   4.540   0.646   2.524
   31POPC   C1R 1593   4.567   0.690   2.673
   31POPC    CE 1594   4.089   0.993   0.765
   31POPC    OG 1595   3.996   1.024   0.871
   31POPC   C2A 1596   4.039   1.023   0.994
   31POPC    OH 1597   4.156   1.011   1.030
   31POPC   C2B 1598   3.925   1.041   1.090
   31POPC   C2C 1599   3.957   0.966   1.222
   31POPC   C2D 1600   3.840   0.960   1.317
   31POPC   C2E 1601   3.868   0.888   1.458
   31POPC   C2F 1602   3.751   0.885   1.560
   31POPC   C2G 1603   3.792   0.815   1.695
   31POPC   C2H 1604   3.670   0.795   1.786
   31POPC   C2I 1605   3.715   0.725   1.918
   31POPC   C2J 1606   3.595   0.681   2.003
   31POPC   C2K 1607   3.654   0.594   2.114
   31POPC   C2L 1608   3.546   0.554   2.216
   31POPC   C2M 1609   3.583   0.428   2.294
   31POPC   C2N 1610   3.493   0.416   2.414
   31POPC   C2O 1611   3.519   0.288   2.495
   31POPC   C2P 1612   3.422   0.273   2.611
   32POPC   CN1 1613   2.909   5.132   0.252
   32POPC   CN2 1614   2.716   5.200   0.379
   32POPC   CN3 1615   2.722   5.206   0.126
   32POPC   NTM 1616   2.800   5.231   0.256
   32POPC    CA 1617   2.858   5.378   0.251
   32POPC    CB 1618   2.741   5.481   0.247
   32POPC    OA 1619   2.660   5.464   0.365
   32POPC     P 1620   2.551   5.570   0.400
   32POPC    OB 1621   2.432   5.494   0.370
   32POPC    OC 1622   2.576   5.696   0.331
   32POPC    OD 1623   2.566   5.583   0.556
   32POPC    CC 1624   2.683   5.564   0.631
   32POPC    CD 1625   2.704   5.423   0.681
   32POPC    OE 1626   2.610   5.398   0.783
   32POPC   C1A 1627   2.590   5.270   0.812
   32POPC    OF 1628   2.639   5.172   0.755
   32POPC   C1B 1629   2.481   5.268   0.918
   32POPC   C1C 1630   2.449   5.130   0.983
   32POPC   C1D 1631   2.557   5.099   1.089
   32POPC   C1E 1632   2.520   4.990   1.187
   32POPC   C1F 1633   2.638   4.941   1.273
   32POPC   C1G 1634   2.575   4.852   1.385
   32POPC   C1H 1635   2.680   4.830   1.497
   32POPC   C1I 1636   2.611   4.723   1.583
   32POPC   C1J 1637   2.583   4.733   1.711
   32POPC   C1K 1638   2.599   4.847   1.801
   32POPC   C1L 1639   2.595   4.823   1.957
   32POPC   C1M 1640   2.725   4.750   1.993
   32POPC   C1N 1641   2.756   4.737   2.144
   32POPC   C1O 1642   2.638   4.702   2.240
   32POPC   C1P 1643   2.675   4.673   2.378
   32POPC   C1Q 1644   2.709   4.799   2.463
   32POPC   C1R 1645   2.771   4.759   2.602
   32POPC    CE 1646   2.845   5.395   0.718
   32POPC    OG 1647   2.890   5.479   0.827
   32POPC   C2A 1648   2.903   5.425   0.945
   32POPC    OH 1649   2.895   5.305   0.972
   32POPC   C2B 1650   2.934   5.531   1.047
   32POPC   C2C 1651   2.876   5.488   1.185
   32POPC   C2D 1652   2.882   5.596   1.289
   32POPC   C2E 1653   2.828   5.557   1.434
   32POPC   C2F 1654   2.838   5.665   1.545
   32POPC   C2G 1655   2.785   5.614   1.684
   32POPC   C2H 1656   2.778   5.727   1.787
   32POPC   C2I 1657   2.724   5.671   1.922
   32POPC   C2J 1658   2.691   5.784   2.021
   32POPC   C2K 1659   2.618   5.716   2.136
   32POPC   C2L 1660   2.592   5.815   2.251
   32POPC   C2M 1661   2.475   5.772   2.341
   32POPC   C2N 1662   2.480   5.851   2.469
   32POPC   C2O 1663   2.362   5.819   2.562
   32POPC   C2P 1664   2.362   5.906   2.687
   33POPC   CN1 1665   2.476   2.195   0.313
   33POPC   CN2 1666   2.273   2.287   0.407
   33POPC   CN3 1667   2.317   2.280   0.158
   33POPC   NTM 1668   2.377   2.304   0.297
   33POPC    CA 1669   2.450   2.444   0.295
   33POPC    CB 1670   2.345   2.558   0.269
   33POPC    OA 1671   2.247   2.555   0.374
   33POPC     P 1672   2.145   2.671   0.388
   33POPC    OB 1673   2.024   2.605   0.342
   33POPC    OC 1674   2.192   2.791   0.319
   33POPC    OD 1675   2.137   2.692   0.543
   33POPC    CC 1676   2.240   2.667   0.636
   33POPC    CD 1677   2.239   2.527   0.695
   33POPC    OE 1678   2.129   2.517   0.782
   33POPC   C1A 1679   2.093   2.393   0.813
   33POPC    OF 1680   2.139   2.288   0.768
   33POPC   C1B 1681   1.970   2.406   0.900
   33POPC   C1C 1682   1.915   2.276   0.966
   33POPC   C1D 1683   2.002   2.241   1.088
   33POPC   C1E 1684   1.941   2.141   1.183
   33POPC   C1F 1685   2.039   2.086   1.289
   33POPC   C1G 1686   1.952   2.010   1.394
   33POPC   C1H 1687   2.036   1.984   1.521
   33POPC   C1I 1688   1.945   1.889   1.599
   33POPC   C1J 1689   1.900   1.909   1.721
   33POPC   C1K 1690   1.913   2.026   1.808
   33POPC   C1L 1691   1.883   2.011   1.962
   33POPC   C1M 1692   1.999   1.928   2.020
   33POPC   C1N 1693   2.007   1.921   2.175
   33POPC   C1O 1694   1.873   1.903   2.254
   33POPC   C1P 1695   1.886   1.878   2.397
   33POPC   C1Q 1696   1.919   2.005   2.480
   33POPC   C1R 1697   1.956   1.967   2.629
   33POPC    CE 1698   2.369   2.488   0.754
   33POPC    OG 1699   2.406   2.574   0.864
   33POPC   C2A 1700   2.396   2.526   0.985
   33POPC    OH 1701   2.372   2.409   1.016
   33POPC   C2B 1702   2.422   2.634   1.086
   33POPC   C2C 1703   2.340   2.604   1.215
   33POPC   C2D 1704   2.342   2.717   1.315
   33POPC   C2E 1705   2.263   2.691   1.452
   33POPC   C2F 1706   2.267   2.803   1.558
   33POPC   C2G 1707   2.189   2.765   1.689
   33POPC   C2H 1708   2.178   2.884   1.785
   33POPC   C2I 1709   2.099   2.841   1.913
   33POPC   C2J 1710   2.064   2.961   2.001
   33POPC   C2K 1711   1.968   2.907   2.107
   33POPC   C2L 1712   1.936   3.014   2.212
   33POPC   C2M 1713   1.803   2.986   2.284
   33POPC   C2N 1714   1.796   3.072   2.409
   33POPC   C2O 1715   1.664   3.056   2.484
   33POPC   C2P 1716   1.654   3.149   2.604
   34POPC   CN1 1717   6.044   3.224   0.224
   34POPC   CN2 1718   5.896   3.352   0.366
   34POPC   CN3 1719   5.868   3.340   0.115
   34POPC   NTM 1720   5.967   3.350   0.231
   34POPC    CA 1721   6.062   3.474   0.203
   34POPC    CB 1722   5.977   3.606   0.203
   34POPC    OA 1723   5.913   3.620   0.331
   34POPC     P 1724   5.842   3.754   0.367
   34POPC    OB 1725   5.703   3.713   0.359
   34POPC    OC 1726   5.890   3.863   0.283
   34POPC    OD 1727   5.882   3.773   0.518
   34POPC    CC 1728   5.999   3.727   0.580
   34POPC    CD 1729   5.988   3.589   0.642
   34POPC    OE 1730   5.906   3.600   0.756
   34POPC   C1A 1731   5.858   3.484   0.801
   34POPC    OF 1732   5.869   3.373   0.748
   34POPC   C1B 1733   5.769   3.520   0.918
   34POPC   C1C 1734   5.710   3.401   1.001
   34POPC   C1D 1735   5.820   3.349   1.096
   34POPC   C1E 1736   5.769   3.261   1.208
   34POPC   C1F 1737   5.881   3.187   1.284
   34POPC   C1G 1738   5.813   3.127   1.412
   34POPC   C1H 1739   5.923   3.083   1.512
   34POPC   C1I 1740   5.840   3.006   1.617
   34POPC   C1J 1741   5.835   3.033   1.745
   34POPC   C1K 1742   5.894   3.144   1.821
   34POPC   C1L 1743   5.905   3.132   1.978
   34POPC   C1M 1744   6.015   3.028   2.005
   34POPC   C1N 1745   6.063   3.017   2.151
   34POPC   C1O 1746   5.955   3.024   2.265
   34POPC   C1P 1747   6.002   2.995   2.399
   34POPC   C1Q 1748   6.080   3.112   2.466
   34POPC   C1R 1749   6.148   3.065   2.600
   34POPC    CE 1750   6.121   3.526   0.665
   34POPC    OG 1751   6.201   3.601   0.757
   34POPC   C2A 1752   6.217   3.554   0.878
   34POPC    OH 1753   6.180   3.443   0.919
   34POPC   C2B 1754   6.289   3.653   0.964
   34POPC   C2C 1755   6.242   3.638   1.112
   34POPC   C2D 1756   6.292   3.747   1.203
   34POPC   C2E 1757   6.251   3.734   1.357
   34POPC   C2F 1758   6.305   3.842   1.454
   34POPC   C2G 1759   6.260   3.817   1.603
   34POPC   C2H 1760   6.299   3.935   1.693
   34POPC   C2I 1761   6.252   3.906   1.839
   34POPC   C2J 1762   6.265   4.029   1.929
   34POPC   C2K 1763   6.194   3.993   2.058
   34POPC   C2L 1764   6.212   4.102   2.165
   34POPC   C2M 1765   6.102   4.100   2.271
   34POPC   C2N 1766   6.146   4.184   2.389
   34POPC   C2O 1767   6.039   4.192   2.498
   34POPC   C2P 1768   6.080   4.284   2.612
   35POPC   CN1 1769   2.079   3.089   0.307
   35POPC   CN2 1770   1.859   3.064   0.403
   35POPC   CN3 1771   1.897   3.091   0.154
   35POPC   NTM 1772   1.939   3.135   0.294
   35POPC    CA 1773   1.933   3.293   0.300
   35POPC    CB 1774   1.785   3.341   0.279
   35POPC    OA 1775   1.703   3.285   0.382
   35POPC     P 1776   1.556   3.335   0.400
   35POPC    OB 1777   1.484   3.220   0.350
   35POPC    OC 1778   1.538   3.465   0.337
   35POPC    OD 1779   1.542   3.342   0.556
   35POPC    CC 1780   1.645   3.367   0.649
   35POPC    CD 1781   1.714   3.242   0.701
   35POPC    OE 1782   1.625   3.175   0.786
   35POPC   C1A 1783   1.655   3.048   0.811
   35POPC    OF 1784   1.747   2.982   0.761
   35POPC   C1B 1785   1.543   2.995   0.898
   35POPC   C1C 1786   1.561   2.851   0.956
   35POPC   C1D 1787   1.655   2.859   1.078
   35POPC   C1E 1788   1.653   2.737   1.167
   35POPC   C1F 1789   1.767   2.733   1.271
   35POPC   C1G 1790   1.730   2.619   1.371
   35POPC   C1H 1791   1.818   2.632   1.498
   35POPC   C1I 1792   1.787   2.501   1.571
   35POPC   C1J 1793   1.740   2.490   1.693
   35POPC   C1K 1794   1.695   2.594   1.786
   35POPC   C1L 1795   1.678   2.559   1.939
   35POPC   C1M 1796   1.821   2.542   1.994
   35POPC   C1N 1797   1.833   2.532   2.148
   35POPC   C1O 1798   1.727   2.446   2.224
   35POPC   C1P 1799   1.752   2.425   2.366
   35POPC   C1Q 1800   1.720   2.547   2.456
   35POPC   C1R 1801   1.773   2.525   2.603
   35POPC    CE 1802   1.848   3.270   0.760
   35POPC    OG 1803   1.839   3.358   0.874
   35POPC   C2A 1804   1.856   3.305   0.993
   35POPC    OH 1805   1.893   3.191   1.017
   35POPC   C2B 1806   1.826   3.407   1.099
   35POPC   C2C 1807   1.771   3.335   1.226
   35POPC   C2D 1808   1.718   3.428   1.330
   35POPC   C2E 1809   1.665   3.361   1.465
   35POPC   C2F 1810   1.614   3.455   1.577
   35POPC   C2G 1811   1.567   3.377   1.705
   35POPC   C2H 1812   1.500   3.471   1.806
   35POPC   C2I 1813   1.455   3.388   1.931
   35POPC   C2J 1814   1.366   3.471   2.025
   35POPC   C2K 1815   1.311   3.372   2.126
   35POPC   C2L 1816   1.231   3.443   2.236
   35POPC   C2M 1817   1.131   3.351   2.306
   35POPC   C2N 1818   1.084   3.416   2.434
   35POPC   C2O 1819   0.978   3.333   2.506
   35POPC   C2P 1820   0.925   3.403   2.631
   36POPC   CN1 1821   3.470   4.893   0.305
   36POPC   CN2 1822   3.533   4.699   0.433
   36POPC   CN3 1823   3.569   4.716   0.183
   36POPC   NTM 1824   3.475   4.746   0.300
   36POPC    CA 1825   3.333   4.687   0.265
   36POPC    CB 1826   3.342   4.530   0.252
   36POPC    OA 1827   3.389   4.476   0.376
   36POPC     P 1828   3.384   4.323   0.400
   36POPC    OB 1829   3.526   4.291   0.392
   36POPC    OC 1830   3.291   4.258   0.308
   36POPC    OD 1831   3.337   4.313   0.550
   36POPC    CC 1832   3.256   4.405   0.618
   36POPC    CD 1833   3.332   4.514   0.691
   36POPC    OE 1834   3.396   4.456   0.802
   36POPC   C1A 1835   3.494   4.529   0.855
   36POPC    OF 1836   3.539   4.636   0.812
   36POPC   C1B 1837   3.552   4.445   0.966
   36POPC   C1C 1838   3.659   4.512   1.058
   36POPC   C1D 1839   3.587   4.604   1.159
   36POPC   C1E 1840   3.672   4.646   1.276
   36POPC   C1F 1841   3.610   4.759   1.361
   36POPC   C1G 1842   3.695   4.767   1.492
   36POPC   C1H 1843   3.619   4.850   1.597
   36POPC   C1I 1844   3.727   4.869   1.706
   36POPC   C1J 1845   3.716   4.832   1.831
   36POPC   C1K 1846   3.609   4.758   1.899
   36POPC   C1L 1847   3.601   4.761   2.057
   36POPC   C1M 1848   3.556   4.903   2.095
   36POPC   C1N 1849   3.517   4.924   2.243
   36POPC   C1O 1850   3.606   4.856   2.353
   36POPC   C1P 1851   3.576   4.893   2.490
   36POPC   C1Q 1852   3.449   4.825   2.549
   36POPC   C1R 1853   3.410   4.887   2.688
   36POPC    CE 1854   3.247   4.632   0.722
   36POPC    OG 1855   3.138   4.599   0.810
   36POPC   C2A 1856   3.145   4.637   0.935
   36POPC    OH 1857   3.230   4.712   0.983
   36POPC   C2B 1858   3.032   4.579   1.014
   36POPC   C2C 1859   3.078   4.557   1.161
   36POPC   C2D 1860   2.979   4.479   1.244
   36POPC   C2E 1861   3.018   4.458   1.397
   36POPC   C2F 1862   2.916   4.383   1.487
   36POPC   C2G 1863   2.964   4.370   1.636
   36POPC   C2H 1864   2.871   4.279   1.717
   36POPC   C2I 1865   2.924   4.269   1.864
   36POPC   C2J 1866   2.850   4.161   1.944
   36POPC   C2K 1867   2.928   4.148   2.074
   36POPC   C2L 1868   2.856   4.053   2.171
   36POPC   C2M 1869   2.951   3.992   2.275
   36POPC   C2N 1870   2.870   3.931   2.387
   36POPC   C2O 1871   2.957   3.862   2.492
   36POPC   C2P 1872   2.874   3.793   2.600
   37POPC   CN1 1873   5.464   4.232   0.235
   37POPC   CN2 1874   5.328   4.097   0.382
   37POPC   CN3 1875   5.326   4.069   0.130
   37POPC   NTM 1876   5.331   4.168   0.247
   37POPC    CA 1877   5.217   4.275   0.225
   37POPC    CB 1878   5.077   4.204   0.230
   37POPC    OA 1879   5.062   4.140   0.358
   37POPC     P 1880   4.923   4.083   0.400
   37POPC    OB 1881   4.949   3.941   0.390
   37POPC    OC 1882   4.816   4.143   0.321
   37POPC    OD 1883   4.914   4.124   0.552
   37POPC    CC 1884   4.974   4.235   0.612
   37POPC    CD 1885   5.113   4.210   0.668
   37POPC    OE 1886   5.100   4.128   0.783
   37POPC   C1A 1887   5.211   4.068   0.822
   37POPC    OF 1888   5.321   4.069   0.765
   37POPC   C1B 1889   5.172   3.982   0.940
   37POPC   C1C 1890   5.287   3.911   1.018
   37POPC   C1D 1891   5.354   4.014   1.110
   37POPC   C1E 1892   5.441   3.953   1.219
   37POPC   C1F 1893   5.530   4.056   1.292
   37POPC   C1G 1894   5.588   3.982   1.417
   37POPC   C1H 1895   5.646   4.086   1.515
   37POPC   C1I 1896   5.719   3.995   1.616
   37POPC   C1J 1897   5.698   3.991   1.745
   37POPC   C1K 1898   5.596   4.060   1.826
   37POPC   C1L 1899   5.616   4.069   1.982
   37POPC   C1M 1900   5.732   4.167   2.006
   37POPC   C1N 1901   5.753   4.213   2.152
   37POPC   C1O 1902   5.741   4.105   2.265
   37POPC   C1P 1903   5.780   4.148   2.398
   37POPC   C1Q 1904   5.675   4.237   2.470
   37POPC   C1R 1905   5.734   4.299   2.603
   37POPC    CE 1906   5.191   4.335   0.689
   37POPC    OG 1907   5.128   4.422   0.785
   37POPC   C2A 1908   5.182   4.431   0.904
   37POPC    OH 1909   5.290   4.383   0.939
   37POPC   C2B 1910   5.094   4.512   0.994
   37POPC   C2C 1911   5.110   4.462   1.141
   37POPC   C2D 1912   5.011   4.522   1.237
   37POPC   C2E 1913   5.026   4.479   1.390
   37POPC   C2F 1914   4.929   4.543   1.492
   37POPC   C2G 1915   4.955   4.495   1.639
   37POPC   C2H 1916   4.845   4.544   1.735
   37POPC   C2I 1917   4.876   4.493   1.879
   37POPC   C2J 1918   4.759   4.518   1.974
   37POPC   C2K 1919   4.793   4.442   2.102
   37POPC   C2L 1920   4.690   4.470   2.213
   37POPC   C2M 1921   4.686   4.360   2.319
   37POPC   C2N 1922   4.612   4.411   2.440
   37POPC   C2O 1923   4.598   4.304   2.549
   37POPC   C2P 1924   4.516   4.353   2.667
   38POPC   CN1 1925   1.738   0.017   0.243
   38POPC   CN2 1926   1.775   0.214   0.377
   38POPC   CN3 1927   1.779   0.218   0.124
   38POPC   NTM 1928   1.817   0.141   0.250
   38POPC    CA 1929   1.972   0.108   0.242
   38POPC    CB 1930   2.055   0.241   0.242
   38POPC    OA 1931   2.026   0.313   0.362
   38POPC     P 1932   2.113   0.437   0.400
   38POPC    OB 1933   2.018   0.544   0.375
   38POPC    OC 1934   2.240   0.436   0.330
   38POPC    OD 1935   2.131   0.419   0.555
   38POPC    CC 1936   2.133   0.298   0.626
   38POPC    CD 1937   1.997   0.252   0.677
   38POPC    OE 1938   1.959   0.338   0.783
   38POPC   C1A 1939   1.830   0.335   0.814
   38POPC    OF 1940   1.740   0.273   0.755
   38POPC   C1B 1941   1.811   0.438   0.923
   38POPC   C1C 1942   1.671   0.444   0.991
   38POPC   C1D 1943   1.660   0.329   1.093
   38POPC   C1E 1944   1.547   0.344   1.193
   38POPC   C1F 1945   1.520   0.217   1.275
   38POPC   C1G 1946   1.424   0.260   1.390
   38POPC   C1H 1947   1.420   0.149   1.498
   38POPC   C1I 1948   1.305   0.196   1.588
   38POPC   C1J 1949   1.312   0.221   1.716
   38POPC   C1K 1950   1.429   0.221   1.805
   38POPC   C1L 1951   1.406   0.216   1.961
   38POPC   C1M 1952   1.356   0.075   1.993
   38POPC   C1N 1953   1.351   0.036   2.142
   38POPC   C1O 1954   1.299   0.143   2.244
   38POPC   C1P 1955   1.278   0.097   2.380
   38POPC   C1Q 1956   1.409   0.082   2.462
   38POPC   C1R 1957   1.382   0.009   2.600
   38POPC    CE 1958   1.994   0.108   0.709
   38POPC    OG 1959   2.086   0.073   0.815
   38POPC   C2A 1960   2.037   0.047   0.933
   38POPC    OH 1961   1.917   0.035   0.962
   38POPC   C2B 1962   2.147   0.031   1.033
   38POPC   C2C 1963   2.098   0.077   1.173
   38POPC   C2D 1964   2.207   0.085   1.276
   38POPC   C2E 1965   2.161   0.126   1.424
   38POPC   C2F 1966   2.271   0.130   1.533
   38POPC   C2G 1967   2.213   0.170   1.675
   38POPC   C2H 1968   2.326   0.192   1.776
   38POPC   C2I 1969   2.264   0.231   1.914
   38POPC   C2J 1970   2.371   0.278   2.014
   38POPC   C2K 1971   2.293   0.335   2.132
   38POPC   C2L 1972   2.388   0.373   2.247
   38POPC   C2M 1973   2.328   0.478   2.341
   38POPC   C2N 1974   2.409   0.482   2.468
   38POPC   C2O 1975   2.359   0.590   2.566
   38POPC   C2P 1976   2.446   0.600   2.690
   39POPC   CN1 1977   5.387   0.638   0.287
   39POPC   CN2 1978   5.339   0.438   0.413
   39POPC   CN3 1979   5.368   0.438   0.162
   39POPC   NTM 1980   5.311   0.512   0.282
   39POPC    CA 1981   5.158   0.541   0.254
   39POPC    CB 1982   5.080   0.405   0.242
   39POPC    OA 1983   5.094   0.332   0.365
   39POPC     P 1984   5.007   0.206   0.390
   39POPC    OB 1985   5.108   0.102   0.376
   39POPC    OC 1986   4.890   0.205   0.303
   39POPC    OD 1987   4.969   0.221   0.541
   39POPC    CC 1988   4.954   0.341   0.613
   39POPC    CD 1989   5.080   0.389   0.681
   39POPC    OE 1990   5.107   0.303   0.790
   39POPC   C1A 1991   5.231   0.310   0.838
   39POPC    OF 1992   5.325   0.375   0.792
   39POPC   C1B 1993   5.238   0.206   0.947
   39POPC   C1C 1994   5.369   0.202   1.033
   39POPC   C1D 1995   5.363   0.315   1.136
   39POPC   C1E 1996   5.462   0.302   1.250
   39POPC   C1F 1997   5.475   0.429   1.337
   39POPC   C1G 1998   5.556   0.387   1.463
   39POPC   C1H 1999   5.542   0.496   1.571
   39POPC   C1I 2000   5.647   0.451   1.675
   39POPC   C1J 2001   5.623   0.424   1.801
   39POPC   C1K 2002   5.496   0.419   1.874
   39POPC   C1L 2003   5.498   0.423   2.032
   39POPC   C1M 2004   5.540   0.565   2.071
   39POPC   C1N 2005   5.524   0.601   2.220
   39POPC   C1O 2006   5.566   0.494   2.327
   39POPC   C1P 2007   5.567   0.539   2.465
   39POPC   C1Q 2008   5.426   0.550   2.530
   39POPC   C1R 2009   5.433   0.621   2.670
   39POPC    CE 2010   5.076   0.534   0.715
   39POPC    OG 2011   4.970   0.564   0.808
   39POPC   C2A 2012   5.002   0.590   0.932
   39POPC    OH 2013   5.116   0.605   0.976
   39POPC   C2B 2014   4.879   0.602   1.017
   39POPC   C2C 2015   4.911   0.555   1.162
   39POPC   C2D 2016   4.790   0.543   1.250
   39POPC   C2E 2017   4.817   0.500   1.401
   39POPC   C2F 2018   4.694   0.491   1.496
   39POPC   C2G 2019   4.734   0.452   1.643
   39POPC   C2H 2020   4.610   0.425   1.729
   39POPC   C2I 2021   4.655   0.385   1.873
   39POPC   C2J 2022   4.537   0.333   1.957
   39POPC   C2K 2023   4.600   0.277   2.084
   39POPC   C2L 2024   4.492   0.235   2.185
   39POPC   C2M 2025   4.543   0.131   2.285
   39POPC   C2N 2026   4.446   0.122   2.401
   39POPC   C2O 2027   4.486   0.015   2.503
   39POPC   C2P 2028   4.384   0.000   2.614
   40POPC   CN1 2029   6.189   1.068   0.246
   40POPC   CN2 2030   5.997   1.120   0.383
   40POPC   CN3 2031   5.988   1.116   0.130
   40POPC   NTM 2032   6.070   1.155   0.253
   40POPC    CA 2033   6.111   1.307   0.238
   40POPC    CB 2034   5.982   1.396   0.238
   40POPC    OA 2035   5.912   1.376   0.361
   40POPC     P 2036   5.794   1.471   0.399
   40POPC    OB 2037   5.682   1.381   0.379
   40POPC    OC 2038   5.800   1.595   0.323
   40POPC    OD 2039   5.816   1.493   0.553
   40POPC    CC 2040   5.939   1.491   0.621
   40POPC    CD 2041   5.978   1.355   0.675
   40POPC    OE 2042   5.894   1.326   0.784
   40POPC   C1A 2043   5.891   1.198   0.820
   40POPC    OF 2044   5.946   1.103   0.763
   40POPC   C1B 2045   5.789   1.189   0.932
   40POPC   C1C 2046   5.777   1.051   1.005
   40POPC   C1D 2047   5.893   1.038   1.105
   40POPC   C1E 2048   5.875   0.930   1.209
   40POPC   C1F 2049   6.003   0.898   1.290
   40POPC   C1G 2050   5.957   0.809   1.410
   40POPC   C1H 2051   6.070   0.803   1.515
   40POPC   C1I 2052   6.018   0.694   1.610
   40POPC   C1J 2053   5.997   0.707   1.738
   40POPC   C1K 2054   6.005   0.827   1.823
   40POPC   C1L 2055   6.013   0.810   1.980
   40POPC   C1M 2056   6.153   0.753   2.010
   40POPC   C1N 2057   6.194   0.751   2.159
   40POPC   C1O 2058   6.087   0.708   2.264
   40POPC   C1P 2059   6.135   0.691   2.401
   40POPC   C1Q 2060   6.159   0.823   2.477
   40POPC   C1R 2061   6.234   0.797   2.614
   40POPC    CE 2062   6.124   1.345   0.705
   40POPC    OG 2063   6.165   1.439   0.806
   40POPC   C2A 2064   6.191   1.393   0.926
   40POPC    OH 2065   6.198   1.274   0.958
   40POPC   C2B 2066   6.216   1.506   1.021
   40POPC   C2C 2067   6.171   1.464   1.164
   40POPC   C2D 2068   6.171   1.577   1.263
   40POPC   C2E 2069   6.131   1.539   1.413
   40POPC   C2F 2070   6.135   1.652   1.518
   40POPC   C2G 2071   6.096   1.602   1.662
   40POPC   C2H 2072   6.083   1.719   1.760
   40POPC   C2I 2073   6.043   1.664   1.901
   40POPC   C2J 2074   6.004   1.777   1.997
   40POPC   C2K 2075   5.946   1.707   2.120
   40POPC   C2L 2076   5.916   1.808   2.232
   40POPC   C2M 2077   5.811   1.757   2.330
   40POPC   C2N 2078   5.814   1.843   2.455
   40POPC   C2O 2079   5.706   1.803   2.556
   40POPC   C2P 2080   5.704   1.895   2.677
   41POPC   CN1 2081   1.403   4.642   0.228
   41POPC   CN2 2082   1.286   4.797   0.371
   41POPC   CN3 2083   1.261   4.797   0.119
   41POPC   NTM 2084   1.357   4.782   0.237
   41POPC    CA 2085   1.478   4.881   0.215
   41POPC    CB 2086   1.427   5.029   0.216
   41POPC    OA 2087   1.364   5.055   0.343
   41POPC     P 2088   1.326   5.201   0.382
   41POPC    OB 2089   1.181   5.193   0.370
   41POPC    OC 2090   1.400   5.297   0.301
   41POPC    OD 2091   1.365   5.207   0.534
   41POPC    CC 2092   1.467   5.134   0.597
   41POPC    CD 2093   1.423   5.001   0.655
   41POPC    OE 2094   1.343   5.027   0.768
   41POPC   C1A 2095   1.268   4.925   0.809
   41POPC    OF 2096   1.254   4.815   0.753
   41POPC   C1B 2097   1.186   4.978   0.925
   41POPC   C1C 2098   1.100   4.875   1.004
   41POPC   C1D 2099   1.192   4.796   1.099
   41POPC   C1E 2100   1.120   4.720   1.208
   41POPC   C1F 2101   1.209   4.620   1.284
   41POPC   C1G 2102   1.126   4.576   1.409
   41POPC   C1H 2103   1.221   4.505   1.510
   41POPC   C1I 2104   1.120   4.447   1.611
   41POPC   C1J 2105   1.118   4.472   1.740
   41POPC   C1K 2106   1.199   4.564   1.819
   41POPC   C1L 2107   1.203   4.547   1.976
   41POPC   C1M 2108   1.285   4.420   2.003
   41POPC   C1N 2109   1.326   4.395   2.150
   41POPC   C1O 2110   1.219   4.424   2.261
   41POPC   C1P 2111   1.255   4.382   2.396
   41POPC   C1Q 2112   1.357   4.476   2.467
   41POPC   C1R 2113   1.409   4.412   2.601
   41POPC    CE 2114   1.536   4.908   0.679
   41POPC    OG 2115   1.630   4.960   0.775
   41POPC   C2A 2116   1.631   4.908   0.895
   41POPC    OH 2117   1.569   4.808   0.931
   41POPC   C2B 2118   1.722   4.986   0.984
   41POPC   C2C 2119   1.669   4.979   1.131
   41POPC   C2D 2120   1.740   5.071   1.225
   41POPC   C2E 2121   1.694   5.065   1.378
   41POPC   C2F 2122   1.769   5.155   1.479
   41POPC   C2G 2123   1.716   5.139   1.626
   41POPC   C2H 2124   1.779   5.243   1.720
   41POPC   C2I 2125   1.722   5.222   1.865
   41POPC   C2J 2126   1.762   5.337   1.958
   41POPC   C2K 2127   1.681   5.315   2.085
   41POPC   C2L 2128   1.722   5.415   2.195
   41POPC   C2M 2129   1.612   5.436   2.299
   41POPC   C2N 2130   1.671   5.505   2.420
   41POPC   C2O 2131   1.566   5.536   2.527
   41POPC   C2P 2132   1.624   5.613   2.645
   42POPC   CN1 2133   2.474   1.954   0.243
   42POPC   CN2 2134   2.659   1.965   0.396
   42POPC   CN3 2135   2.683   2.016   0.149
   42POPC   NTM 2136   2.618   1.926   0.255
   42POPC    CA 2137   2.648   1.776   0.216
   42POPC    CB 2138   2.802   1.749   0.222
   42POPC    OA 2139   2.849   1.776   0.355
   42POPC     P 2140   2.994   1.735   0.396
   42POPC    OB 2141   3.056   1.866   0.402
   42POPC    OC 2142   3.047   1.634   0.306
   42POPC    OD 2143   2.973   1.680   0.542
   42POPC    CC 2144   2.858   1.620   0.593
   42POPC    CD 2145   2.759   1.715   0.658
   42POPC    OE 2146   2.816   1.759   0.780
   42POPC   C1A 2147   2.760   1.869   0.831
   42POPC    OF 2148   2.673   1.939   0.779
   42POPC   C1B 2149   2.840   1.901   0.955
   42POPC   C1C 2150   2.787   2.016   1.046
   42POPC   C1D 2151   2.670   1.963   1.130
   42POPC   C1E 2152   2.633   2.050   1.248
   42POPC   C1F 2153   2.499   2.011   1.315
   42POPC   C1G 2154   2.494   2.090   1.450
   42POPC   C1H 2155   2.383   2.030   1.539
   42POPC   C1I 2156   2.375   2.134   1.652
   42POPC   C1J 2157   2.392   2.109   1.780
   42POPC   C1K 2158   2.431   1.985   1.848
   42POPC   C1L 2159   2.406   1.972   2.003
   42POPC   C1M 2160   2.254   1.959   2.022
   42POPC   C1N 2161   2.206   1.918   2.163
   42POPC   C1O 2162   2.277   1.984   2.286
   42POPC   C1P 2163   2.217   1.957   2.416
   42POPC   C1Q 2164   2.248   1.816   2.472
   42POPC   C1R 2165   2.161   1.785   2.600
   42POPC    CE 2166   2.622   1.659   0.669
   42POPC    OG 2167   2.619   1.541   0.752
   42POPC   C2A 2168   2.568   1.551   0.872
   42POPC    OH 2169   2.508   1.649   0.917
   42POPC   C2B 2170   2.588   1.424   0.948
   42POPC   C2C 2171   2.601   1.457   1.100
   42POPC   C2D 2172   2.644   1.339   1.184
   42POPC   C2E 2173   2.654   1.365   1.341
   42POPC   C2F 2174   2.692   1.245   1.431
   42POPC   C2G 2175   2.696   1.282   1.584
   42POPC   C2H 2176   2.753   1.166   1.668
   42POPC   C2I 2177   2.755   1.209   1.818
   42POPC   C2J 2178   2.832   1.109   1.904
   42POPC   C2K 2179   2.846   1.175   2.040
   42POPC   C2L 2180   2.910   1.079   2.143
   42POPC   C2M 2181   2.976   1.152   2.260
   42POPC   C2N 2182   3.002   1.054   2.371
   42POPC   C2O 2183   3.075   1.118   2.490
   42POPC   C2P 2184   3.109   1.017   2.598
   43POPC   CN1 2185   0.535   6.138   0.238
   43POPC   CN2 2186   0.710   6.203   0.391
   43POPC   CN3 2187   0.722   6.248   0.142
   43POPC   NTM 2188   0.682   6.149   0.252
   43POPC    CA 2189   0.751   6.010   0.219
   43POPC    CB 2190   0.907   6.026   0.226
   43POPC    OA 2191   0.943   6.069   0.358
   43POPC     P 2192   1.093   6.069   0.400
   43POPC    OB 2193   1.120   6.212   0.401
   43POPC    OC 2194   1.172   5.982   0.314
   43POPC    OD 2195   1.087   6.016   0.548
   43POPC    CC 2196   0.990   5.930   0.601
   43POPC    CD 2197   0.870   5.998   0.663
   43POPC    OE 2198   0.911   6.060   0.783
   43POPC   C1A 2199   0.828   6.154   0.829
   43POPC    OF 2200   0.726   6.197   0.775
   43POPC   C1B 2201   0.896   6.210   0.952
   43POPC   C1C 2202   0.813   6.311   1.038
   43POPC   C1D 2203   0.714   6.232   1.125
   43POPC   C1E 2204   0.654   6.311   1.239
   43POPC   C1F 2205   0.534   6.241   1.307
   43POPC   C1G 2206   0.507   6.321   1.439
   43POPC   C1H 2207   0.414   6.238   1.531
   43POPC   C1I 2208   0.379   6.340   1.640
   43POPC   C1J 2209   0.400   6.326   1.768
   43POPC   C1K 2210   0.469   6.219   1.841
   43POPC   C1L 2211   0.448   6.205   1.997
   43POPC   C1M 2212   0.304   6.153   2.016
   43POPC   C1N 2213   0.267   6.107   2.158
   43POPC   C1O 2214   0.317   6.194   2.279
   43POPC   C1P 2215   0.265   6.157   2.410
   43POPC   C1Q 2216   0.331   6.032   2.471
   43POPC   C1R 2217   0.254   5.984   2.601
   43POPC    CE 2218   0.752   5.909   0.676
   43POPC    OG 2219   0.779   5.797   0.764
   43POPC   C2A 2220   0.726   5.798   0.883
   43POPC    OH 2221   0.642   5.879   0.925
   43POPC   C2B 2222   0.778   5.684   0.965
   43POPC   C2C 2223   0.780   5.725   1.115
   43POPC   C2D 2224   0.851   5.626   1.203
   43POPC   C2E 2225   0.853   5.660   1.360
   43POPC   C2F 2226   0.920   5.557   1.454
   43POPC   C2G 2227   0.913   5.600   1.605
   43POPC   C2H 2228   0.997   5.507   1.694
   43POPC   C2I 2229   0.986   5.554   1.842
   43POPC   C2J 2230   1.087   5.481   1.932
   43POPC   C2K 2231   1.081   5.554   2.066
   43POPC   C2L 2232   1.166   5.482   2.172
   43POPC   C2M 2233   1.210   5.575   2.286
   43POPC   C2N 2234   1.260   5.491   2.401
   43POPC   C2O 2235   1.312   5.577   2.517
   43POPC   C2P 2236   1.370   5.492   2.629
   44POPC   CN1 2237   4.077   4.272   0.279
   44POPC   CN2 2238   4.062   4.060   0.394
   44POPC   CN3 2239   4.065   4.078   0.142
   44POPC   NTM 2240   4.014   4.138   0.273
   44POPC    CA 2241   3.857   4.153   0.262
   44POPC    CB 2242   3.791   4.012   0.247
   44POPC    OA 2243   3.825   3.933   0.361
   44POPC     P 2244   3.754   3.796   0.385
   44POPC    OB 2245   3.862   3.705   0.354
   44POPC    OC 2246   3.629   3.789   0.310
   44POPC    OD 2247   3.729   3.797   0.540
   44POPC    CC 2248   3.711   3.910   0.621
   44POPC    CD 2249   3.838   3.967   0.681
   44POPC    OE 2250   3.883   3.878   0.780
   44POPC   C1A 2251   4.010   3.894   0.816
   44POPC    OF 2252   4.093   3.971   0.767
   44POPC   C1B 2253   4.039   3.784   0.916
   44POPC   C1C 2254   4.177   3.788   0.989
   44POPC   C1D 2255   4.170   3.893   1.101
   44POPC   C1E 2256   4.281   3.883   1.203
   44POPC   C1F 2257   4.291   4.005   1.298
   44POPC   C1G 2258   4.389   3.963   1.413
   44POPC   C1H 2259   4.375   4.063   1.530
   44POPC   C1I 2260   4.493   4.022   1.619
   44POPC   C1J 2261   4.485   3.985   1.744
   44POPC   C1K 2262   4.368   3.962   1.829
   44POPC   C1L 2263   4.385   3.955   1.985
   44POPC   C1M 2264   4.416   4.099   2.031
   44POPC   C1N 2265   4.413   4.123   2.184
   44POPC   C1O 2266   4.475   4.015   2.277
   44POPC   C1P 2267   4.486   4.050   2.418
   44POPC   C1Q 2268   4.352   4.042   2.496
   44POPC   C1R 2269   4.366   4.104   2.640
   44POPC    CE 2270   3.823   4.108   0.726
   44POPC    OG 2271   3.724   4.121   0.831
   44POPC   C2A 2272   3.766   4.142   0.953
   44POPC    OH 2273   3.882   4.166   0.987
   44POPC   C2B 2274   3.652   4.135   1.049
   44POPC   C2C 2275   3.703   4.083   1.187
   44POPC   C2D 2276   3.593   4.052   1.285
   44POPC   C2E 2277   3.639   4.003   1.429
   44POPC   C2F 2278   3.528   3.976   1.534
   44POPC   C2G 2279   3.586   3.931   1.673
   44POPC   C2H 2280   3.474   3.886   1.768
   44POPC   C2I 2281   3.537   3.842   1.904
   44POPC   C2J 2282   3.435   3.773   1.995
   44POPC   C2K 2283   3.515   3.715   2.111
   44POPC   C2L 2284   3.423   3.656   2.218
   44POPC   C2M 2285   3.493   3.551   2.305
   44POPC   C2N 2286   3.410   3.525   2.428
   44POPC   C2O 2287   3.470   3.416   2.517
   44POPC   C2P 2288   3.381   3.384   2.637
   45POPC   CN1 2289   0.006   2.966   0.293
   45POPC   CN2 2290   0.209   2.939   0.420
   45POPC   CN3 2291   0.209   2.972   0.169
   45POPC   NTM 2292   0.140   2.905   0.289
   45POPC    CA 2293   0.128   2.750   0.258
   45POPC    CB 2294   0.272   2.688   0.245
   45POPC    OA 2295   0.342   2.708   0.369
   45POPC     P 2296   0.477   2.635   0.393
   45POPC    OB 2297   0.569   2.747   0.382
   45POPC    OC 2298   0.492   2.520   0.305
   45POPC    OD 2299   0.466   2.592   0.544
   45POPC    CC 2300   0.347   2.563   0.614
   45POPC    CD 2301   0.284   2.682   0.684
   45POPC    OE 2302   0.366   2.716   0.794
   45POPC   C1A 2303   0.345   2.837   0.844
   45POPC    OF 2304   0.271   2.925   0.799
   45POPC   C1B 2305   0.448   2.854   0.955
   45POPC   C1C 2306   0.436   2.982   1.043
   45POPC   C1D 2307   0.323   2.962   1.145
   45POPC   C1E 2308   0.324   3.060   1.261
   45POPC   C1F 2309   0.196   3.057   1.346
   45POPC   C1G 2310   0.228   3.140   1.475
   45POPC   C1H 2311   0.120   3.112   1.582
   45POPC   C1I 2312   0.153   3.219   1.687
   45POPC   C1J 2313   0.181   3.196   1.813
   45POPC   C1K 2314   0.200   3.069   1.884
   45POPC   C1L 2315   0.195   3.067   2.042
   45POPC   C1M 2316   0.048   3.092   2.081
   45POPC   C1N 2317   0.013   3.070   2.229
   45POPC   C1O 2318   0.114   3.121   2.337
   45POPC   C1P 2319   0.068   3.115   2.475
   45POPC   C1Q 2320   0.073   2.973   2.537
   45POPC   C1R 2321   0.000   2.969   2.677
   45POPC    CE 2322   0.141   2.661   0.717
   45POPC    OG 2323   0.122   2.550   0.808
   45POPC   C2A 2324   0.092   2.577   0.932
   45POPC    OH 2325   0.064   2.688   0.978
   45POPC   C2B 2326   0.093   2.452   1.014
   45POPC   C2C 2327   0.135   2.486   1.160
   45POPC   C2D 2328   0.160   2.365   1.246
   45POPC   C2E 2329   0.198   2.394   1.398
   45POPC   C2F 2330   0.220   2.272   1.491
   45POPC   C2G 2331   0.254   2.312   1.639
   45POPC   C2H 2332   0.293   2.190   1.723
   45POPC   C2I 2333   0.327   2.237   1.868
   45POPC   C2J 2334   0.390   2.124   1.951
   45POPC   C2K 2335   0.438   2.190   2.079
   45POPC   C2L 2336   0.491   2.086   2.179
   45POPC   C2M 2337   0.589   2.146   2.281
   45POPC   C2N 2338   0.607   2.048   2.395
   45POPC   C2O 2339   0.709   2.098   2.498
   45POPC   C2P 2340   0.734   1.995   2.608
   46POPC   CN1 2341   2.676   3.055   0.308
   46POPC   CN2 2342   2.472   3.083   0.434
   46POPC   CN3 2343   2.474   3.044   0.184
   46POPC   NTM 2344   2.541   3.115   0.302
   46POPC    CA 2345   2.551   3.269   0.268
   46POPC    CB 2346   2.407   3.329   0.254
   46POPC    OA 2347   2.337   3.310   0.377
   46POPC     P 2348   2.200   3.382   0.400
   46POPC    OB 2349   2.110   3.269   0.391
   46POPC    OC 2350   2.185   3.495   0.309
   46POPC    OD 2351   2.211   3.428   0.550
   46POPC    CC 2352   2.329   3.460   0.619
   46POPC    CD 2353   2.393   3.344   0.692
   46POPC    OE 2354   2.311   3.311   0.803
   46POPC   C1A 2355   2.333   3.191   0.855
   46POPC    OF 2356   2.409   3.104   0.813
   46POPC   C1B 2357   2.231   3.175   0.966
   46POPC   C1C 2358   2.243   3.049   1.057
   46POPC   C1D 2359   2.356   3.073   1.159
   46POPC   C1E 2360   2.355   2.978   1.277
   46POPC   C1F 2361   2.483   2.984   1.363
   46POPC   C1G 2362   2.452   2.903   1.493
   46POPC   C1H 2363   2.559   2.935   1.599
   46POPC   C1I 2364   2.527   2.830   1.707
   46POPC   C1J 2365   2.498   2.855   1.832
   46POPC   C1K 2366   2.478   2.983   1.901
   46POPC   C1L 2367   2.482   2.988   2.058
   46POPC   C1M 2368   2.629   2.966   2.098
   46POPC   C1N 2369   2.664   2.992   2.246
   46POPC   C1O 2370   2.563   2.941   2.355
   46POPC   C1P 2371   2.608   2.951   2.493
   46POPC   C1Q 2372   2.601   3.095   2.552
   46POPC   C1R 2373   2.673   3.102   2.692
   46POPC    CE 2374   2.536   3.368   0.725
   46POPC    OG 2375   2.553   3.480   0.814
   46POPC   C2A 2376   2.583   3.456   0.939
   46POPC    OH 2377   2.612   3.347   0.987
   46POPC   C2B 2378   2.580   3.583   1.018
   46POPC   C2C 2379   2.538   3.551   1.165
   46POPC   C2D 2380   2.511   3.674   1.248
   46POPC   C2E 2381   2.473   3.648   1.401
   46POPC   C2F 2382   2.449   3.772   1.491
   46POPC   C2G 2383   2.415   3.734   1.639
   46POPC   C2H 2384   2.374   3.857   1.721
   46POPC   C2I 2385   2.340   3.813   1.867
   46POPC   C2J 2386   2.275   3.927   1.947
   46POPC   C2K 2387   2.227   3.863   2.076
   46POPC   C2L 2388   2.172   3.968   2.174
   46POPC   C2M 2389   2.076   3.909   2.276
   46POPC   C2N 2390   2.055   4.009   2.388
   46POPC   C2O 2391   1.954   3.960   2.492
   46POPC   C2P 2392   1.928   4.065   2.600
   47POPC   CN1 2393   2.354   3.571   0.229
   47POPC   CN2 2394   2.199   3.682   0.376
   47POPC   CN3 2395   2.163   3.667   0.126
   47POPC   NTM 2396   2.264   3.688   0.239
   47POPC    CA 2397   2.344   3.821   0.209
   47POPC    CB 2398   2.246   3.944   0.212
   47POPC    OA 2399   2.185   3.951   0.342
   47POPC     P 2400   2.101   4.076   0.381
   47POPC    OB 2401   1.968   4.021   0.377
   47POPC    OC 2402   2.135   4.190   0.295
   47POPC    OD 2403   2.144   4.100   0.530
   47POPC    CC 2404   2.268   4.067   0.588
   47POPC    CD 2405   2.274   3.929   0.650
   47POPC    OE 2406   2.195   3.930   0.767
   47POPC   C1A 2407   2.161   3.810   0.813
   47POPC    OF 2408   2.182   3.701   0.760
   47POPC   C1B 2409   2.072   3.836   0.933
   47POPC   C1C 2410   2.030   3.712   1.018
   47POPC   C1D 2411   2.147   3.671   1.109
   47POPC   C1E 2412   2.110   3.579   1.222
   47POPC   C1F 2413   2.232   3.517   1.294
   47POPC   C1G 2414   2.175   3.451   1.424
   47POPC   C1H 2415   2.292   3.419   1.520
   47POPC   C1I 2416   2.222   3.334   1.627
   47POPC   C1J 2417   2.218   3.359   1.756
   47POPC   C1K 2418   2.267   3.476   1.830
   47POPC   C1L 2419   2.285   3.466   1.986
   47POPC   C1M 2420   2.406   3.374   2.010
   47POPC   C1N 2421   2.460   3.369   2.154
   47POPC   C1O 2422   2.356   3.363   2.271
   47POPC   C1P 2423   2.411   3.340   2.404
   47POPC   C1Q 2424   2.478   3.464   2.468
   47POPC   C1R 2425   2.555   3.425   2.600
   47POPC    CE 2426   2.413   3.879   0.668
   47POPC    OG 2427   2.488   3.963   0.758
   47POPC   C2A 2428   2.512   3.918   0.879
   47POPC    OH 2429   2.489   3.804   0.920
   47POPC   C2B 2430   2.577   4.024   0.962
   47POPC   C2C 2431   2.536   4.005   1.111
   47POPC   C2D 2432   2.577   4.118   1.201
   47POPC   C2E 2433   2.543   4.101   1.356
   47POPC   C2F 2434   2.589   4.214   1.452
   47POPC   C2G 2435   2.552   4.185   1.602
   47POPC   C2H 2436   2.580   4.306   1.691
   47POPC   C2I 2437   2.541   4.272   1.838
   47POPC   C2J 2438   2.545   4.396   1.928
   47POPC   C2K 2439   2.482   4.352   2.060
   47POPC   C2L 2440   2.492   4.464   2.166
   47POPC   C2M 2441   2.387   4.449   2.276
   47POPC   C2N 2442   2.425   4.537   2.393
   47POPC   C2O 2443   2.322   4.534   2.505
   47POPC   C2P 2444   2.356   4.630   2.619
   48POPC   CN1 2445   1.765   4.195   0.321
   48POPC   CN2 2446   1.635   4.361   0.439
   48POPC   CN3 2447   1.619   4.329   0.189
   48POPC   NTM 2448   1.712   4.333   0.310
   48POPC    CA 2449   1.829   4.435   0.279
   48POPC    CB 2450   1.770   4.579   0.261
   48POPC    OA 2451   1.703   4.617   0.381
   48POPC     P 2452   1.656   4.765   0.400
   48POPC    OB 2453   1.513   4.748   0.385
   48POPC    OC 2454   1.728   4.854   0.310
   48POPC    OD 2455   1.690   4.792   0.551
   48POPC    CC 2456   1.793   4.732   0.626
   48POPC    CD 2457   1.753   4.606   0.699
   48POPC    OE 2458   1.668   4.642   0.805
   48POPC   C1A 2459   1.597   4.542   0.857
   48POPC    OF 2460   1.590   4.426   0.815
   48POPC   C1B 2461   1.509   4.605   0.963
   48POPC   C1C 2462   1.425   4.508   1.052
   48POPC   C1D 2463   1.517   4.447   1.159
   48POPC   C1E 2464   1.445   4.381   1.274
   48POPC   C1F 2465   1.536   4.297   1.365
   48POPC   C1G 2466   1.451   4.264   1.492
   48POPC   C1H 2467   1.545   4.212   1.604
   48POPC   C1I 2468   1.444   4.161   1.708
   48POPC   C1J 2469   1.436   4.201   1.833
   48POPC   C1K 2470   1.510   4.307   1.903
   48POPC   C1L 2471   1.510   4.310   2.060
   48POPC   C1M 2472   1.597   4.192   2.105
   48POPC   C1N 2473   1.633   4.187   2.255
   48POPC   C1O 2474   1.522   4.224   2.359
   48POPC   C1P 2475   1.555   4.202   2.499
   48POPC   C1Q 2476   1.650   4.309   2.560
   48POPC   C1R 2477   1.700   4.265   2.703
   48POPC    CE 2478   1.870   4.522   0.737
   48POPC    OG 2479   1.958   4.591   0.829
   48POPC   C2A 2480   1.957   4.554   0.954
   48POPC    OH 2481   1.898   4.457   1.002
   48POPC   C2B 2482   2.042   4.647   1.036
   48POPC   C2C 2483   1.984   4.656   1.180
   48POPC   C2D 2484   2.047   4.763   1.265
   48POPC   C2E 2485   1.996   4.774   1.415
   48POPC   C2F 2486   2.064   4.880   1.506
   48POPC   C2G 2487   2.007   4.879   1.653
   48POPC   C2H 2488   2.061   4.997   1.735
   48POPC   C2I 2489   2.001   4.991   1.879
   48POPC   C2J 2490   2.032   5.119   1.958
   48POPC   C2K 2491   1.947   5.109   2.085
   48POPC   C2L 2492   1.980   5.224   2.182
   48POPC   C2M 2493   1.865   5.252   2.279
   48POPC   C2N 2494   1.917   5.339   2.392
   48POPC   C2O 2495   1.807   5.377   2.491
   48POPC   C2P 2496   1.857   5.471   2.600
   49POPC   CN1 2497   6.245   2.762   0.307
   49POPC   CN2 2498   6.036   2.779   0.427
   49POPC   CN3 2499   6.048   2.754   0.175
   49POPC   NTM 2500   6.109   2.819   0.299
   49POPC    CA 2501   6.117   2.976   0.274
   49POPC    CB 2502   5.972   3.034   0.258
   49POPC    OA 2503   5.898   3.007   0.378
   49POPC     P 2504   5.760   3.075   0.400
   49POPC    OB 2505   5.672   2.961   0.381
   49POPC    OC 2506   5.745   3.192   0.315
   49POPC    OD 2507   5.764   3.113   0.553
   49POPC    CC 2508   5.879   3.143   0.628
   49POPC    CD 2509   5.943   3.023   0.696
   49POPC    OE 2510   5.858   2.983   0.802
   49POPC   C1A 2511   5.880   2.861   0.848
   49POPC    OF 2512   5.960   2.777   0.804
   49POPC   C1B 2513   5.775   2.837   0.954
   49POPC   C1C 2514   5.787   2.706   1.038
   49POPC   C1D 2515   5.895   2.726   1.145
   49POPC   C1E 2516   5.893   2.624   1.257
   49POPC   C1F 2517   6.018   2.628   1.348
   49POPC   C1G 2518   5.983   2.539   1.472
   49POPC   C1H 2519   6.086   2.567   1.584
   49POPC   C1I 2520   6.052   2.455   1.685
   49POPC   C1J 2521   6.019   2.473   1.810
   49POPC   C1K 2522   5.994   2.596   1.885
   49POPC   C1L 2523   5.992   2.592   2.043
   49POPC   C1M 2524   6.138   2.571   2.086
   49POPC   C1N 2525   6.167   2.589   2.237
   49POPC   C1O 2526   6.064   2.530   2.339
   49POPC   C1P 2527   6.103   2.534   2.479
   49POPC   C1Q 2528   6.092   2.673   2.545
   49POPC   C1R 2529   6.159   2.674   2.688
   49POPC    CE 2530   6.084   3.048   0.735
   49POPC    OG 2531   6.095   3.156   0.831
   49POPC   C2A 2532   6.122   3.125   0.955
   49POPC    OH 2533   6.152   3.014   0.998
   49POPC   C2B 2534   6.114   3.247   1.041
   49POPC   C2C 2535   6.067   3.207   1.185
   49POPC   C2D 2536   6.035   3.323   1.273
   49POPC   C2E 2537   5.992   3.288   1.423
   49POPC   C2F 2538   5.963   3.406   1.519
   49POPC   C2G 2539   5.925   3.359   1.664
   49POPC   C2H 2540   5.878   3.477   1.750
   49POPC   C2I 2541   5.840   3.424   1.893
   49POPC   C2J 2542   5.770   3.532   1.976
   49POPC   C2K 2543   5.719   3.460   2.100
   49POPC   C2L 2544   5.659   3.559   2.201
   49POPC   C2M 2545   5.560   3.492   2.297
   49POPC   C2N 2546   5.534   3.585   2.414
   49POPC   C2O 2547   5.430   3.529   2.511
   49POPC   C2P 2548   5.398   3.626   2.624
   50POPC   CN1 2549   3.504   5.700   0.222
   50POPC   CN2 2550   3.314   5.628   0.352
   50POPC   CN3 2551   3.320   5.614   0.100
   50POPC   NTM 2552   3.357   5.697   0.223
   50POPC    CA 2553   3.299   5.843   0.203
   50POPC    CB 2554   3.143   5.837   0.196
   50POPC    OA 2555   3.093   5.781   0.318
   50POPC     P 2556   2.940   5.786   0.348
   50POPC    OB 2557   2.905   5.646   0.329
   50POPC    OC 2558   2.874   5.888   0.268
   50POPC    OD 2559   2.937   5.820   0.502
   50POPC    CC 2560   3.033   5.893   0.573
   50POPC    CD 2561   3.144   5.809   0.634
   50POPC    OE 2562   3.089   5.736   0.742
   50POPC   C1A 2563   3.162   5.633   0.783
   50POPC    OF 2564   3.266   5.589   0.731
   50POPC   C1B 2565   3.081   5.566   0.892
   50POPC   C1C 2566   3.150   5.450   0.970
   50POPC   C1D 2567   3.247   5.511   1.074
   50POPC   C1E 2568   3.292   5.415   1.182
   50POPC   C1F 2569   3.409   5.468   1.267
   50POPC   C1G 2570   3.421   5.371   1.389
   50POPC   C1H 2571   3.510   5.436   1.497
   50POPC   C1I 2572   3.530   5.319   1.595
   50POPC   C1J 2573   3.499   5.319   1.722
   50POPC   C1K 2574   3.430   5.421   1.803
   50POPC   C1L 2575   3.439   5.414   1.960
   50POPC   C1M 2576   3.583   5.454   1.996
   50POPC   C1N 2577   3.611   5.479   2.146
   50POPC   C1O 2578   3.546   5.382   2.250
   50POPC   C1P 2579   3.589   5.399   2.388
   50POPC   C1Q 2580   3.525   5.521   2.460
   50POPC   C1R 2581   3.594   5.547   2.600
   50POPC    CE 2582   3.265   5.889   0.668
   50POPC    OG 2583   3.237   5.990   0.766
   50POPC   C2A 2584   3.280   5.971   0.888
   50POPC    OH 2585   3.355   5.880   0.926
   50POPC   C2B 2586   3.228   6.078   0.979
   50POPC   C2C 2587   3.211   6.019   1.123
   50POPC   C2D 2588   3.138   6.111   1.217
   50POPC   C2E 2589   3.122   6.059   1.367
   50POPC   C2F 2590   3.053   6.154   1.468
   50POPC   C2G 2591   3.045   6.093   1.613
   50POPC   C2H 2592   2.959   6.180   1.706
   50POPC   C2I 2593   2.954   6.115   1.848
   50POPC   C2J 2594   2.851   6.183   1.939
   50POPC   C2K 2595   2.841   6.094   2.062
   50POPC   C2L 2596   2.751   6.158   2.169
   50POPC   C2M 2597   2.693   6.056   2.267
   50POPC   C2N 2598   2.638   6.128   2.387
   50POPC   C2O 2599   2.572   6.033   2.487
   50POPC   C2P 2600   2.509   6.107   2.605
   51POPC   CN1 2601   3.963   2.327   0.283
   51POPC   CN2 2602   3.842   2.497   0.404
   51POPC   CN3 2603   3.845   2.485   0.151
   51POPC   NTM 2604   3.926   2.470   0.280
   51POPC    CA 2605   4.056   2.559   0.267
   51POPC    CB 2606   4.015   2.711   0.256
   51POPC    OA 2607   3.941   2.747   0.373
   51POPC     P 2608   3.909   2.897   0.400
   51POPC    OB 2609   3.767   2.898   0.373
   51POPC    OC 2610   3.998   2.984   0.324
   51POPC    OD 2611   3.932   2.909   0.555
   51POPC    CC 2612   4.021   2.833   0.633
   51POPC    CD 2613   3.962   2.707   0.692
   51POPC    OE 2614   3.872   2.744   0.794
   51POPC   C1A 2615   3.786   2.650   0.831
   51POPC    OF 2616   3.771   2.538   0.780
   51POPC   C1B 2617   3.696   2.714   0.934
   51POPC   C1C 2618   3.595   2.621   1.008
   51POPC   C1D 2619   3.671   2.542   1.116
   51POPC   C1E 2620   3.582   2.477   1.220
   51POPC   C1F 2621   3.655   2.376   1.311
   51POPC   C1G 2622   3.556   2.343   1.428
   51POPC   C1H 2623   3.634   2.273   1.541
   51POPC   C1I 2624   3.519   2.227   1.633
   51POPC   C1J 2625   3.505   2.258   1.759
   51POPC   C1K 2626   3.583   2.350   1.843
   51POPC   C1L 2627   3.569   2.341   2.000
   51POPC   C1M 2628   3.638   2.210   2.042
   51POPC   C1N 2629   3.661   2.191   2.193
   51POPC   C1O 2630   3.546   2.232   2.290
   51POPC   C1P 2631   3.564   2.196   2.430
   51POPC   C1Q 2632   3.663   2.286   2.507
   51POPC   C1R 2633   3.696   2.227   2.650
   51POPC    CE 2634   4.065   2.608   0.732
   51POPC    OG 2635   4.151   2.659   0.836
   51POPC   C2A 2636   4.135   2.614   0.957
   51POPC    OH 2637   4.063   2.520   0.992
   51POPC   C2B 2638   4.222   2.690   1.053
   51POPC   C2C 2639   4.153   2.695   1.192
   51POPC   C2D 2640   4.220   2.788   1.290
   51POPC   C2E 2641   4.157   2.793   1.437
   51POPC   C2F 2642   4.227   2.883   1.541
   51POPC   C2G 2643   4.157   2.878   1.682
   51POPC   C2H 2644   4.217   2.982   1.778
   51POPC   C2I 2645   4.144   2.974   1.916
   51POPC   C2J 2646   4.181   3.090   2.007
   51POPC   C2K 2647   4.085   3.081   2.125
   51POPC   C2L 2648   4.121   3.184   2.234
   51POPC   C2M 2649   4.002   3.218   2.325
   51POPC   C2N 2650   4.052   3.289   2.448
   51POPC   C2O 2651   3.939   3.332   2.541
   51POPC   C2P 2652   3.989   3.412   2.661
   52POPC   CN1 2653   2.964   2.237   0.268
   52POPC   CN2 2654   2.822   2.372   0.409
   52POPC   CN3 2655   2.788   2.353   0.159
   52POPC   NTM 2656   2.890   2.364   0.273
   52POPC    CA 2657   2.987   2.485   0.240
   52POPC    CB 2658   2.905   2.619   0.238
   52POPC    OA 2659   2.844   2.638   0.366
   52POPC     P 2660   2.777   2.775   0.400
   52POPC    OB 2661   2.637   2.737   0.396
   52POPC    OC 2662   2.826   2.880   0.312
   52POPC    OD 2663   2.820   2.797   0.549
   52POPC    CC 2664   2.938   2.750   0.611
   52POPC    CD 2665   2.925   2.614   0.677
   52POPC    OE 2666   2.845   2.630   0.792
   52POPC   C1A 2667   2.795   2.517   0.841
   52POPC    OF 2668   2.803   2.404   0.792
   52POPC   C1B 2669   2.709   2.558   0.959
   52POPC   C1C 2670   2.650   2.443   1.046
   52POPC   C1D 2671   2.760   2.391   1.140
   52POPC   C1E 2672   2.709   2.307   1.256
   52POPC   C1F 2673   2.820   2.232   1.332
   52POPC   C1G 2674   2.754   2.178   1.463
   52POPC   C1H 2675   2.865   2.135   1.562
   52POPC   C1I 2676   2.782   2.062   1.670
   52POPC   C1J 2677   2.780   2.092   1.798
   52POPC   C1K 2678   2.843   2.204   1.869
   52POPC   C1L 2679   2.857   2.197   2.026
   52POPC   C1M 2680   2.965   2.091   2.054
   52POPC   C1N 2681   3.016   2.083   2.200
   52POPC   C1O 2682   2.910   2.095   2.315
   52POPC   C1P 2683   2.959   2.069   2.450
   52POPC   C1Q 2684   3.041   2.185   2.511
   52POPC   C1R 2685   3.111   2.141   2.646
   52POPC    CE 2686   3.056   2.548   0.699
   52POPC    OG 2687   3.140   2.624   0.788
   52POPC   C2A 2688   3.157   2.580   0.910
   52POPC    OH 2689   3.118   2.471   0.954
   52POPC   C2B 2690   3.233   2.680   0.991
   52POPC   C2C 2691   3.188   2.670   1.140
   52POPC   C2D 2692   3.243   2.780   1.227
   52POPC   C2E 2693   3.204   2.773   1.382
   52POPC   C2F 2694   3.263   2.882   1.475
   52POPC   C2G 2695   3.221   2.862   1.625
   52POPC   C2H 2696   3.264   2.982   1.711
   52POPC   C2I 2697   3.219   2.958   1.859
   52POPC   C2J 2698   3.237   3.083   1.945
   52POPC   C2K 2699   3.167   3.052   2.077
   52POPC   C2L 2700   3.190   3.164   2.180
   52POPC   C2M 2701   3.082   3.167   2.289
   52POPC   C2N 2702   3.130   3.253   2.403
   52POPC   C2O 2703   3.026   3.267   2.514
   52POPC   C2P 2704   3.071   3.361   2.625
   53POPC   CN1 2705   2.550   5.139   0.233
   53POPC   CN2 2706   2.670   4.983   0.372
   53POPC   CN3 2707   2.701   4.995   0.121
   53POPC   NTM 2708   2.602   5.001   0.237
   53POPC    CA 2709   2.485   4.898   0.208
   53POPC    CB 2710   2.544   4.752   0.205
   53POPC    OA 2711   2.604   4.724   0.332
   53POPC     P 2712   2.648   4.578   0.365
   53POPC    OB 2713   2.792   4.593   0.358
   53POPC    OC 2714   2.580   4.482   0.279
   53POPC    OD 2715   2.605   4.564   0.516
   53POPC    CC 2716   2.498   4.630   0.579
   53POPC    CD 2717   2.535   4.762   0.644
   53POPC    OE 2718   2.613   4.734   0.758
   53POPC   C1A 2719   2.682   4.838   0.805
   53POPC    OF 2720   2.692   4.950   0.754
   53POPC   C1B 2721   2.763   4.783   0.921
   53POPC   C1C 2722   2.842   4.887   1.006
   53POPC   C1D 2723   2.745   4.957   1.102
   53POPC   C1E 2724   2.811   5.032   1.216
   53POPC   C1F 2725   2.715   5.124   1.294
   53POPC   C1G 2726   2.793   5.167   1.423
   53POPC   C1H 2727   2.693   5.229   1.524
   53POPC   C1I 2728   2.788   5.287   1.630
   53POPC   C1J 2729   2.788   5.257   1.757
   53POPC   C1K 2730   2.709   5.158   1.831
   53POPC   C1L 2731   2.700   5.168   1.988
   53POPC   C1M 2732   2.612   5.291   2.018
   53POPC   C1N 2733   2.566   5.308   2.165
   53POPC   C1O 2734   2.671   5.279   2.277
   53POPC   C1P 2735   2.629   5.313   2.413
   53POPC   C1Q 2736   2.531   5.212   2.477
   53POPC   C1R 2737   2.472   5.268   2.612
   53POPC    CE 2738   2.417   4.849   0.668
   53POPC    OG 2739   2.323   4.789   0.760
   53POPC   C2A 2740   2.317   4.835   0.882
   53POPC    OH 2741   2.373   4.936   0.924
   53POPC   C2B 2742   2.227   4.750   0.965
   53POPC   C2C 2743   2.276   4.753   1.113
   53POPC   C2D 2744   2.206   4.654   1.202
   53POPC   C2E 2745   2.248   4.655   1.356
   53POPC   C2F 2746   2.174   4.558   1.451
   53POPC   C2G 2747   2.223   4.570   1.600
   53POPC   C2H 2748   2.162   4.460   1.688
   53POPC   C2I 2749   2.214   4.477   1.835
   53POPC   C2J 2750   2.177   4.357   1.922
   53POPC   C2K 2751   2.254   4.376   2.052
   53POPC   C2L 2752   2.215   4.270   2.156
   53POPC   C2M 2753   2.323   4.250   2.263
   53POPC   C2N 2754   2.264   4.173   2.379
   53POPC   C2O 2755   2.367   4.142   2.487
   53POPC   C2P 2756   2.309   4.058   2.600
   54POPC   CN1 2757   3.461   4.030   0.320
   54POPC   CN2 2758   3.465   3.812   0.424
   54POPC   CN3 2759   3.475   3.844   0.174
   54POPC   NTM 2760   3.413   3.891   0.305
   54POPC    CA 2761   3.255   3.890   0.287
   54POPC    CB 2762   3.206   3.743   0.263
   54POPC    OA 2763   3.244   3.662   0.376
   54POPC     P 2764   3.188   3.518   0.390
   54POPC    OB 2765   3.306   3.441   0.359
   54POPC    OC 2766   3.067   3.501   0.309
   54POPC    OD 2767   3.157   3.509   0.544
   54POPC    CC 2768   3.123   3.615   0.629
   54POPC    CD 2769   3.241   3.682   0.697
   54POPC    OE 2770   3.292   3.593   0.793
   54POPC   C1A 2771   3.415   3.621   0.836
   54POPC    OF 2772   3.491   3.709   0.794
   54POPC   C1B 2773   3.452   3.510   0.932
   54POPC   C1C 2774   3.586   3.525   1.010
   54POPC   C1D 2775   3.564   3.624   1.127
   54POPC   C1E 2776   3.671   3.620   1.233
   54POPC   C1F 2777   3.664   3.737   1.333
   54POPC   C1G 2778   3.761   3.700   1.450
   54POPC   C1H 2779   3.732   3.792   1.571
   54POPC   C1I 2780   3.851   3.760   1.663
   54POPC   C1J 2781   3.842   3.716   1.786
   54POPC   C1K 2782   3.725   3.676   1.865
   54POPC   C1L 2783   3.737   3.664   2.021
   54POPC   C1M 2784   3.750   3.807   2.075
   54POPC   C1N 2785   3.738   3.823   2.228
   54POPC   C1O 2786   3.809   3.717   2.319
   54POPC   C1P 2787   3.810   3.746   2.462
   54POPC   C1Q 2788   3.675   3.720   2.533
   54POPC   C1R 2789   3.677   3.776   2.681
   54POPC    CE 2790   3.209   3.818   0.748
   54POPC    OG 2791   3.106   3.815   0.849
   54POPC   C2A 2792   3.141   3.834   0.973
   54POPC    OH 2793   3.252   3.868   1.013
   54POPC   C2B 2794   3.024   3.811   1.064
   54POPC   C2C 2795   3.076   3.757   1.201
   54POPC   C2D 2796   2.966   3.710   1.292
   54POPC   C2E 2797   3.012   3.659   1.437
   54POPC   C2F 2798   2.901   3.615   1.535
   54POPC   C2G 2799   2.958   3.569   1.674
   54POPC   C2H 2800   2.848   3.508   1.762
   54POPC   C2I 2801   2.910   3.464   1.899
   54POPC   C2J 2802   2.812   3.380   1.982
   54POPC   C2K 2803   2.894   3.325   2.098
   54POPC   C2L 2804   2.805   3.251   2.199
   54POPC   C2M 2805   2.883   3.150   2.283
   54POPC   C2N 2806   2.798   3.109   2.402
   54POPC   C2O 2807   2.866   3.003   2.488
   54POPC   C2P 2808   2.777   2.955   2.602
   55POPC   CN1 2809   5.088   5.277   0.240
   55POPC   CN2 2810   4.987   5.120   0.394
   55POPC   CN3 2811   5.007   5.075   0.145
   55POPC   NTM 2812   4.978   5.179   0.253
   55POPC    CA 2813   4.839   5.247   0.219
   55POPC    CB 2814   4.725   5.140   0.225
   55POPC    OA 2815   4.721   5.084   0.358
   55POPC     P 2816   4.602   4.994   0.400
   55POPC    OB 2817   4.667   4.865   0.402
   55POPC    OC 2818   4.487   5.015   0.312
   55POPC    OD 2819   4.573   5.041   0.547
   55POPC    CC 2820   4.596   5.169   0.599
   55POPC    CD 2821   4.733   5.188   0.662
   55POPC    OE 2822   4.737   5.115   0.782
   55POPC   C1A 2823   4.858   5.092   0.831
   55POPC    OF 2824   4.966   5.119   0.777
   55POPC   C1B 2825   4.838   5.007   0.954
   55POPC   C1C 2826   4.964   4.977   1.042
   55POPC   C1D 2827   4.995   5.102   1.127
   55POPC   C1E 2828   5.089   5.076   1.243
   55POPC   C1F 2829   5.141   5.205   1.311
   55POPC   C1G 2830   5.210   5.160   1.443
   55POPC   C1H 2831   5.232   5.283   1.534
   55POPC   C1I 2832   5.321   5.224   1.645
   55POPC   C1J 2833   5.294   5.224   1.773
   55POPC   C1K 2834   5.174   5.267   1.844
   55POPC   C1L 2835   5.181   5.293   2.000
   55POPC   C1M 2836   5.263   5.421   2.018
   55POPC   C1N 2837   5.263   5.481   2.160
   55POPC   C1O 2838   5.275   5.383   2.282
   55POPC   C1P 2839   5.293   5.445   2.412
   55POPC   C1Q 2840   5.163   5.506   2.472
   55POPC   C1R 2841   5.195   5.591   2.601
   55POPC    CE 2842   4.772   5.331   0.674
   55POPC    OG 2843   4.682   5.404   0.761
   55POPC   C2A 2844   4.724   5.437   0.880
   55POPC    OH 2845   4.839   5.424   0.923
   55POPC   C2B 2846   4.612   5.496   0.960
   55POPC   C2C 2847   4.633   5.464   1.111
   55POPC   C2D 2848   4.516   5.500   1.198
   55POPC   C2E 2849   4.534   5.474   1.354
   55POPC   C2F 2850   4.417   5.515   1.447
   55POPC   C2G 2851   4.448   5.487   1.599
   55POPC   C2H 2852   4.323   5.511   1.686
   55POPC   C2I 2853   4.359   5.481   1.835
   55POPC   C2J 2854   4.234   5.479   1.924
   55POPC   C2K 2855   4.281   5.425   2.059
   55POPC   C2L 2856   4.169   5.432   2.163
   55POPC   C2M 2857   4.190   5.333   2.278
   55POPC   C2N 2858   4.098   5.370   2.392
   55POPC   C2O 2859   4.107   5.271   2.509
   55POPC   C2P 2860   4.008   5.304   2.620
   56POPC   CN1 2861   2.962   6.279   0.280
   56POPC   CN2 2862   2.850   6.096   0.390
   56POPC   CN3 2863   2.846   6.127   0.139
   56POPC   NTM 2864   2.840   6.196   0.275
   56POPC    CA 2865   2.711   6.288   0.278
   56POPC    CB 2866   2.583   6.199   0.265
   56POPC    OA 2867   2.579   6.106   0.374
   56POPC     P 2868   2.451   6.022   0.400
   56POPC    OB 2869   2.497   5.891   0.357
   56POPC    OC 2870   2.335   6.082   0.336
   56POPC    OD 2871   2.440   6.024   0.557
   56POPC    CC 2872   2.486   6.126   0.642
   56POPC    CD 2873   2.628   6.108   0.692
   56POPC    OE 2874   2.628   6.001   0.784
   56POPC   C1A 2875   2.748   5.949   0.810
   56POPC    OF 2876   2.855   5.978   0.756
   56POPC   C1B 2877   2.723   5.833   0.904
   56POPC   C1C 2878   2.849   5.763   0.964
   56POPC   C1D 2879   2.904   5.850   1.079
   56POPC   C1E 2880   3.000   5.778   1.171
   56POPC   C1F 2881   3.076   5.873   1.268
   56POPC   C1G 2882   3.146   5.780   1.372
   56POPC   C1H 2883   3.192   5.865   1.493
   56POPC   C1I 2884   3.279   5.765   1.570
   56POPC   C1J 2885   3.261   5.728   1.695
   56POPC   C1K 2886   3.153   5.761   1.788
   56POPC   C1L 2887   3.174   5.736   1.943
   56POPC   C1M 2888   3.276   5.841   1.990
   56POPC   C1N 2889   3.295   5.854   2.142
   56POPC   C1O 2890   3.300   5.722   2.227
   56POPC   C1P 2891   3.335   5.738   2.367
   56POPC   C1Q 2892   3.220   5.792   2.456
   56POPC   C1R 2893   3.273   5.830   2.601
   56POPC    CE 2894   2.688   6.234   0.743
   56POPC    OG 2895   2.616   6.286   0.856
   56POPC   C2A 2896   2.670   6.275   0.974
   56POPC    OH 2897   2.784   6.236   0.998
   56POPC   C2B 2898   2.574   6.320   1.080
   56POPC   C2C 2899   2.600   6.240   1.211
   56POPC   C2D 2900   2.496   6.262   1.317
   56POPC   C2E 2901   2.520   6.186   1.456
   56POPC   C2F 2902   2.417   6.210   1.569
   56POPC   C2G 2903   2.453   6.133   1.701
   56POPC   C2H 2904   2.340   6.143   1.804
   56POPC   C2I 2905   2.381   6.065   1.933
   56POPC   C2J 2906   2.263   6.050   2.030
   56POPC   C2K 2907   2.311   5.952   2.137
   56POPC   C2L 2908   2.208   5.939   2.250
   56POPC   C2M 2909   2.221   5.808   2.328
   56POPC   C2N 2910   2.144   5.818   2.457
   56POPC   C2O 2911   2.146   5.688   2.537
   56POPC   C2P 2912   2.061   5.696   2.663
   57POPC   CN1 2913   3.896   5.698   0.296
   57POPC   CN2 2914   3.846   5.502   0.428
   57POPC   CN3 2915   3.887   5.491   0.179
   57POPC   NTM 2916   3.823   5.569   0.294
   57POPC    CA 2917   3.671   5.594   0.257
   57POPC    CB 2918   3.596   5.457   0.247
   57POPC    OA 2919   3.606   5.389   0.373
   57POPC     P 2920   3.521   5.262   0.400
   57POPC    OB 2921   3.624   5.160   0.395
   57POPC    OC 2922   3.408   5.255   0.308
   57POPC    OD 2923   3.474   5.283   0.549
   57POPC    CC 2924   3.454   5.405   0.614
   57POPC    CD 2925   3.576   5.460   0.686
   57POPC    OE 2926   3.599   5.379   0.799
   57POPC   C1A 2927   3.721   5.390   0.853
   57POPC    OF 2928   3.816   5.456   0.808
   57POPC   C1B 2929   3.725   5.291   0.967
   57POPC   C1C 2930   3.851   5.294   1.059
   57POPC   C1D 2931   3.838   5.412   1.157
   57POPC   C1E 2932   3.932   5.406   1.275
   57POPC   C1F 2933   3.938   5.537   1.357
   57POPC   C1G 2934   4.014   5.501   1.489
   57POPC   C1H 2935   3.993   5.615   1.591
   57POPC   C1I 2936   4.094   5.576   1.701
   57POPC   C1J 2937   4.064   5.555   1.827
   57POPC   C1K 2938   3.934   5.550   1.895
   57POPC   C1L 2939   3.928   5.561   2.052
   57POPC   C1M 2940   3.965   5.706   2.087
   57POPC   C1N 2941   3.942   5.748   2.233
   57POPC   C1O 2942   3.981   5.647   2.346
   57POPC   C1P 2943   3.974   5.697   2.482
   57POPC   C1Q 2944   3.831   5.708   2.540
   57POPC   C1R 2945   3.830   5.786   2.677
   57POPC    CE 2946   3.567   5.606   0.713
   57POPC    OG 2947   3.456   5.637   0.800
   57POPC   C2A 2948   3.482   5.669   0.924
   57POPC    OH 2949   3.594   5.689   0.973
   57POPC   C2B 2950   3.355   5.682   1.002
   57POPC   C2C 2951   3.381   5.643   1.151
   57POPC   C2D 2952   3.256   5.631   1.233
   57POPC   C2E 2953   3.277   5.596   1.388
   57POPC   C2F 2954   3.150   5.589   1.477
   57POPC   C2G 2955   3.184   5.557   1.627
   57POPC   C2H 2956   3.056   5.531   1.708
   57POPC   C2I 2957   3.095   5.498   1.856
   57POPC   C2J 2958   2.974   5.448   1.937
   57POPC   C2K 2959   3.032   5.399   2.069
   57POPC   C2L 2960   2.920   5.359   2.166
   57POPC   C2M 2961   2.968   5.260   2.273
   57POPC   C2N 2962   2.866   5.254   2.384
   57POPC   C2O 2963   2.903   5.153   2.493
   57POPC   C2P 2964   2.796   5.141   2.600
   58POPC   CN1 2965   0.981   5.109   0.245
   58POPC   CN2 2966   0.911   5.281   0.400
   58POPC   CN3 2967   0.855   5.289   0.153
   58POPC   NTM 2968   0.961   5.255   0.258
   58POPC    CA 2969   1.094   5.332   0.219
   58POPC    CB 2970   1.070   5.486   0.225
   58POPC    OA 2971   1.030   5.522   0.359
   58POPC     P 2972   1.023   5.672   0.400
   58POPC    OB 2973   0.879   5.690   0.407
   58POPC    OC 2974   1.101   5.755   0.310
   58POPC    OD 2975   1.082   5.670   0.545
   58POPC    CC 2976   1.177   5.579   0.596
   58POPC    CD 2977   1.118   5.455   0.661
   58POPC    OE 2978   1.059   5.494   0.783
   58POPC   C1A 2979   0.973   5.406   0.834
   58POPC    OF 2980   0.934   5.301   0.783
   58POPC   C1B 2981   0.918   5.472   0.959
   58POPC   C1C 2982   0.826   5.384   1.050
   58POPC   C1D 2983   0.914   5.290   1.134
   58POPC   C1E 2984   0.844   5.227   1.252
   58POPC   C1F 2985   0.924   5.112   1.317
   58POPC   C1G 2986   0.852   5.081   1.453
   58POPC   C1H 2987   0.945   4.994   1.541
   58POPC   C1I 2988   0.849   4.954   1.655
   58POPC   C1J 2989   0.868   4.977   1.783
   58POPC   C1K 2990   0.973   5.053   1.850
   58POPC   C1L 2991   0.995   5.034   2.005
   58POPC   C1M 2992   1.056   4.894   2.023
   58POPC   C1N 2993   1.110   4.861   2.164
   58POPC   C1O 2994   1.026   4.907   2.287
   58POPC   C1P 2995   1.071   4.858   2.417
   58POPC   C1Q 2996   1.196   4.932   2.473
   58POPC   C1R 2997   1.253   4.858   2.600
   58POPC    CE 2998   1.215   5.344   0.671
   58POPC    OG 2999   1.328   5.378   0.753
   58POPC   C2A 3000   1.336   5.325   0.873
   58POPC    OH 3001   1.262   5.237   0.919
   58POPC   C2B 3002   1.450   5.385   0.949
   58POPC   C2C 3003   1.416   5.386   1.101
   58POPC   C2D 3004   1.514   5.464   1.185
   58POPC   C2E 3005   1.487   5.464   1.342
   58POPC   C2F 3006   1.590   5.539   1.431
   58POPC   C2G 3007   1.554   5.530   1.584
   58POPC   C2H 3008   1.646   5.620   1.668
   58POPC   C2I 3009   1.605   5.609   1.819
   58POPC   C2J 3010   1.676   5.714   1.905
   58POPC   C2K 3011   1.610   5.705   2.042
   58POPC   C2L 3012   1.681   5.796   2.144
   58POPC   C2M 3013   1.591   5.834   2.261
   58POPC   C2N 3014   1.676   5.891   2.373
   58POPC   C2O 3015   1.593   5.938   2.492
   58POPC   C2P 3016   1.679   6.003   2.600
   59POPC   CN1 3017   6.117   5.295   0.253
   59POPC   CN2 3018   5.919   5.345   0.381
   59POPC   CN3 3019   5.924   5.352   0.128
   59POPC   NTM 3020   5.999   5.383   0.257
   59POPC    CA 3021   6.045   5.535   0.252
   59POPC    CB 3022   5.918   5.628   0.248
   59POPC    OA 3023   5.839   5.604   0.366
   59POPC     P 3024   5.721   5.699   0.400
   59POPC    OB 3025   5.609   5.613   0.370
   59POPC    OC 3026   5.735   5.827   0.331
   59POPC    OD 3027   5.735   5.714   0.556
   59POPC    CC 3028   5.853   5.706   0.631
   59POPC    CD 3029   5.886   5.567   0.682
   59POPC    OE 3030   5.794   5.535   0.784
   59POPC   C1A 3031   5.787   5.406   0.814
   59POPC    OF 3032   5.844   5.312   0.756
   59POPC   C1B 3033   5.678   5.394   0.919
   59POPC   C1C 3034   5.659   5.254   0.985
   59POPC   C1D 3035   5.769   5.234   1.091
   59POPC   C1E 3036   5.741   5.122   1.189
   59POPC   C1F 3037   5.864   5.083   1.275
   59POPC   C1G 3038   5.809   4.990   1.388
   59POPC   C1H 3039   5.915   4.977   1.499
   59POPC   C1I 3040   5.856   4.865   1.586
   59POPC   C1J 3041   5.827   4.873   1.714
   59POPC   C1K 3042   5.832   4.989   1.804
   59POPC   C1L 3043   5.830   4.964   1.960
   59POPC   C1M 3044   5.966   4.903   1.996
   59POPC   C1N 3045   5.998   4.894   2.147
   59POPC   C1O 3046   5.884   4.849   2.243
   59POPC   C1P 3047   5.923   4.824   2.381
   59POPC   C1Q 3048   5.946   4.953   2.465
   59POPC   C1R 3049   6.011   4.919   2.605
   59POPC    CE 3050   6.029   5.552   0.719
   59POPC    OG 3051   6.067   5.641   0.827
   59POPC   C2A 3052   6.084   5.589   0.946
   59POPC    OH 3053   6.087   5.469   0.973
   59POPC   C2B 3054   6.106   5.697   1.047
   59POPC   C2C 3055   6.051   5.650   1.185
   59POPC   C2D 3056   6.048   5.758   1.289
   59POPC   C2E 3057   5.997   5.715   1.434
   59POPC   C2F 3058   5.998   5.823   1.545
   59POPC   C2G 3059   5.949   5.768   1.684
   59POPC   C2H 3060   5.932   5.881   1.786
   59POPC   C2I 3061   5.882   5.821   1.922
   59POPC   C2J 3062   5.840   5.930   2.021
   59POPC   C2K 3063   5.773   5.857   2.136
   59POPC   C2L 3064   5.738   5.953   2.251
   59POPC   C2M 3065   5.626   5.900   2.340
   59POPC   C2N 3066   5.623   5.980   2.468
   59POPC   C2O 3067   5.509   5.938   2.561
   59POPC   C2P 3068   5.501   6.025   2.686
   60POPC   CN1 3069   0.865   1.602   0.307
   60POPC   CN2 3070   1.069   1.632   0.433
   60POPC   CN3 3071   1.057   1.668   0.183
   60POPC   NTM 3072   1.012   1.582   0.301
   60POPC    CA 3073   1.045   1.431   0.267
   60POPC    CB 3074   1.200   1.414   0.254
   60POPC    OA 3075   1.263   1.451   0.377
   60POPC     P 3076   1.413   1.421   0.401
   60POPC    OB 3077   1.468   1.554   0.391
   60POPC    OC 3078   1.460   1.317   0.310
   60POPC    OD 3079   1.416   1.374   0.551
   60POPC    CC 3080   1.311   1.310   0.620
   60POPC    CD 3081   1.217   1.404   0.692
   60POPC    OE 3082   1.286   1.459   0.803
   60POPC   C1A 3083   1.231   1.568   0.855
   60POPC    OF 3084   1.134   1.631   0.812
   60POPC   C1B 3085   1.325   1.612   0.966
   60POPC   C1C 3086   1.277   1.730   1.056
   60POPC   C1D 3087   1.175   1.676   1.158
   60POPC   C1E 3088   1.149   1.768   1.276
   60POPC   C1F 3089   1.027   1.726   1.361
   60POPC   C1G 3090   1.035   1.813   1.491
   60POPC   C1H 3091   0.940   1.753   1.598
   60POPC   C1I 3092   0.941   1.863   1.705
   60POPC   C1J 3093   0.975   1.847   1.831
   60POPC   C1K 3094   1.030   1.730   1.900
   60POPC   C1L 3095   1.027   1.724   2.057
   60POPC   C1M 3096   0.880   1.704   2.096
   60POPC   C1N 3097   0.853   1.670   2.245
   60POPC   C1O 3098   0.936   1.747   2.353
   60POPC   C1P 3099   0.895   1.725   2.491
   60POPC   C1Q 3100   0.941   1.589   2.551
   60POPC   C1R 3101   0.873   1.562   2.691
   60POPC    CE 3102   1.086   1.341   0.725
   60POPC    OG 3103   1.101   1.229   0.814
   60POPC   C2A 3104   1.065   1.244   0.939
   60POPC    OH 3105   1.006   1.341   0.987
   60POPC   C2B 3106   1.103   1.123   1.019
   60POPC   C2C 3107   1.134   1.166   1.165
   60POPC   C2D 3108   1.194   1.056   1.249
   60POPC   C2E 3109   1.223   1.092   1.402
   60POPC   C2F 3110   1.280   0.979   1.492
   60POPC   C2G 3111   1.301   1.026   1.640
   60POPC   C2H 3112   1.375   0.919   1.722
   60POPC   C2I 3113   1.395   0.971   1.868
   60POPC   C2J 3114   1.489   0.880   1.949
   60POPC   C2K 3115   1.516   0.956   2.078
   60POPC   C2L 3116   1.598   0.869   2.176
   60POPC   C2M 3117   1.674   0.954   2.279
   60POPC   C2N 3118   1.721   0.864   2.391
   60POPC   C2O 3119   1.804   0.939   2.495
   60POPC   C2P 3120   1.859   0.846   2.603
   61POPC   CN1 3121   3.683   2.291   0.342
   61POPC   CN2 3122   3.739   2.077   0.440
   61POPC   CN3 3123   3.737   2.117   0.190
   61POPC   NTM 3124   3.668   2.145   0.323
   61POPC    CA 3125   3.515   2.107   0.308
   61POPC    CB 3126   3.501   1.954   0.280
   61POPC    OA 3127   3.559   1.881   0.389
   61POPC     P 3128   3.537   1.727   0.400
   61POPC    OB 3129   3.670   1.680   0.366
   61POPC    OC 3130   3.423   1.685   0.320
   61POPC    OD 3131   3.513   1.707   0.554
   61POPC    CC 3132   3.457   1.801   0.643
   61POPC    CD 3133   3.557   1.891   0.711
   61POPC    OE 3134   3.629   1.814   0.804
   61POPC   C1A 3135   3.743   1.869   0.846
   61POPC    OF 3136   3.795   1.973   0.806
   61POPC   C1B 3137   3.806   1.767   0.939
   61POPC   C1C 3138   3.934   1.811   1.016
   61POPC   C1D 3139   3.892   1.899   1.135
   61POPC   C1E 3140   3.999   1.918   1.240
   61POPC   C1F 3141   3.966   2.027   1.344
   61POPC   C1G 3142   4.071   2.011   1.459
   61POPC   C1H 3143   4.024   2.091   1.582
   61POPC   C1I 3144   4.149   2.084   1.672
   61POPC   C1J 3145   4.153   2.036   1.794
   61POPC   C1K 3146   4.049   1.969   1.873
   61POPC   C1L 3147   4.067   1.955   2.029
   61POPC   C1M 3148   4.047   2.096   2.086
   61POPC   C1N 3149   4.035   2.106   2.240
   61POPC   C1O 3150   4.130   2.017   2.327
   61POPC   C1P 3151   4.127   2.042   2.470
   61POPC   C1Q 3152   4.003   1.983   2.543
   61POPC   C1R 3153   3.994   2.034   2.692
   61POPC    CE 3154   3.495   2.015   0.766
   61POPC    OG 3155   3.397   1.985   0.868
   61POPC   C2A 3156   3.429   2.009   0.993
   61POPC    OH 3157   3.530   2.067   1.032
   61POPC   C2B 3158   3.322   1.957   1.084
   61POPC   C2C 3159   3.387   1.913   1.219
   61POPC   C2D 3160   3.293   1.839   1.310
   61POPC   C2E 3161   3.352   1.797   1.453
   61POPC   C2F 3162   3.256   1.725   1.551
   61POPC   C2G 3163   3.325   1.691   1.688
   61POPC   C2H 3164   3.234   1.603   1.776
   61POPC   C2I 3165   3.307   1.571   1.910
   61POPC   C2J 3166   3.233   1.465   1.992
   61POPC   C2K 3167   3.327   1.428   2.105
   61POPC   C2L 3168   3.260   1.332   2.205
   61POPC   C2M 3169   3.361   1.250   2.286
   61POPC   C2N 3170   3.290   1.188   2.404
   61POPC   C2O 3171   3.382   1.098   2.486
   61POPC   C2P 3172   3.309   1.028   2.600
   62POPC   CN1 3173   5.924   0.239   0.229
   62POPC   CN2 3174   5.760   0.139   0.375
   62POPC   CN3 3175   5.764   0.097   0.126
   62POPC   NTM 3176   5.782   0.200   0.237
   62POPC    CA 3177   5.689   0.324   0.205
   62POPC    CB 3178   5.539   0.279   0.206
   62POPC    OA 3179   5.507   0.227   0.336
   62POPC     P 3180   5.359   0.198   0.374
   62POPC    OB 3181   5.360   0.053   0.372
   62POPC    OC 3182   5.267   0.270   0.286
   62POPC    OD 3183   5.351   0.248   0.522
   62POPC    CC 3184   5.428   0.351   0.580
   62POPC    CD 3185   5.557   0.305   0.644
   62POPC    OE 3186   5.525   0.234   0.762
   62POPC   C1A 3187   5.622   0.158   0.810
   62POPC    OF 3188   5.732   0.136   0.759
   62POPC   C1B 3189   5.563   0.087   0.930
   62POPC   C1C 3190   5.661   0.002   1.018
   62POPC   C1D 3191   5.741   0.097   1.108
   62POPC   C1E 3192   5.812   0.029   1.224
   62POPC   C1F 3193   5.914   0.119   1.296
   62POPC   C1G 3194   5.952   0.043   1.428
   62POPC   C1H 3195   6.025   0.141   1.523
   62POPC   C1I 3196   6.076   0.045   1.632
   62POPC   C1J 3197   6.049   0.054   1.760
   62POPC   C1K 3198   5.958   0.144   1.832
   62POPC   C1L 3199   5.972   0.159   1.988
   62POPC   C1M 3200   6.103   0.236   2.012
   62POPC   C1N 3201   6.127   0.286   2.157
   62POPC   C1O 3202   6.091   0.189   2.274
   62POPC   C1P 3203   6.131   0.233   2.407
   62POPC   C1Q 3204   6.041   0.343   2.468
   62POPC   C1R 3205   6.104   0.402   2.601
   62POPC    CE 3206   5.655   0.415   0.662
   62POPC    OG 3207   5.605   0.518   0.751
   62POPC   C2A 3208   5.655   0.525   0.871
   62POPC    OH 3209   5.751   0.461   0.915
   62POPC   C2B 3210   5.579   0.626   0.952
   62POPC   C2C 3211   5.580   0.583   1.102
   62POPC   C2D 3212   5.490   0.665   1.189
   62POPC   C2E 3213   5.490   0.629   1.345
   62POPC   C2F 3214   5.402   0.715   1.439
   62POPC   C2G 3215   5.413   0.672   1.589
   62POPC   C2H 3216   5.310   0.746   1.676
   62POPC   C2I 3217   5.325   0.699   1.825
   62POPC   C2J 3218   5.210   0.750   1.912
   62POPC   C2K 3219   5.225   0.677   2.045
   62POPC   C2L 3220   5.125   0.730   2.149
   62POPC   C2M 3221   5.097   0.628   2.260
   62POPC   C2N 3222   5.028   0.699   2.375
   62POPC   C2O 3223   4.990   0.603   2.488
   62POPC   C2P 3224   4.914   0.673   2.600
   63POPC   CN1 3225   1.439   1.116   0.350
   63POPC   CN2 3226   1.648   1.175   0.456
   63POPC   CN3 3227   1.612   1.190   0.206
   63POPC   NTM 3228   1.586   1.110   0.333
   63POPC    CA 3229   1.632   0.960   0.307
   63POPC    CB 3230   1.786   0.956   0.282
   63POPC    OA 3231   1.854   1.010   0.396
   63POPC     P 3232   2.008   0.995   0.409
   63POPC    OB 3233   2.049   1.132   0.385
   63POPC    OC 3234   2.058   0.889   0.322
   63POPC    OD 3235   2.027   0.960   0.561
   63POPC    CC 3236   1.936   0.893   0.643
   63POPC    CD 3237   1.838   0.983   0.717
   63POPC    OE 3238   1.910   1.052   0.817
   63POPC   C1A 3239   1.849   1.160   0.866
   63POPC    OF 3240   1.742   1.209   0.827
   63POPC   C1B 3241   1.946   1.221   0.965
   63POPC   C1C 3242   1.894   1.340   1.050
   63POPC   C1D 3243   1.807   1.285   1.164
   63POPC   C1E 3244   1.781   1.383   1.277
   63POPC   C1F 3245   1.671   1.337   1.375
   63POPC   C1G 3246   1.680   1.434   1.498
   63POPC   C1H 3247   1.601   1.373   1.616
   63POPC   C1I 3248   1.599   1.491   1.715
   63POPC   C1J 3249   1.645   1.488   1.838
   63POPC   C1K 3250   1.717   1.383   1.910
   63POPC   C1L 3251   1.727   1.389   2.067
   63POPC   C1M 3252   1.586   1.359   2.120
   63POPC   C1N 3253   1.575   1.334   2.272
   63POPC   C1O 3254   1.657   1.427   2.368
   63POPC   C1P 3255   1.630   1.412   2.510
   63POPC   C1Q 3256   1.694   1.286   2.574
   63POPC   C1R 3257   1.641   1.264   2.721
   63POPC    CE 3258   1.718   0.911   0.765
   63POPC    OG 3259   1.751   0.808   0.860
   63POPC   C2A 3260   1.724   0.829   0.986
   63POPC    OH 3261   1.659   0.923   1.032
   63POPC   C2B 3262   1.780   0.719   1.070
   63POPC   C2C 3263   1.818   0.775   1.211
   63POPC   C2D 3264   1.895   0.679   1.296
   63POPC   C2E 3265   1.932   0.729   1.443
   63POPC   C2F 3266   2.007   0.630   1.535
   63POPC   C2G 3267   2.035   0.690   1.678
   63POPC   C2H 3268   2.126   0.597   1.760
   63POPC   C2I 3269   2.152   0.662   1.900
   63POPC   C2J 3270   2.261   0.587   1.978
   63POPC   C2K 3271   2.291   0.674   2.099
   63POPC   C2L 3272   2.388   0.604   2.195
   63POPC   C2M 3273   2.464   0.703   2.285
   63POPC   C2N 3274   2.528   0.627   2.399
   63POPC   C2O 3275   2.611   0.718   2.490
   63POPC   C2P 3276   2.683   0.639   2.599
   64POPC   CN1 3277   5.212   1.686   0.304
   64POPC   CN2 3278   5.130   1.885   0.414
   64POPC   CN3 3279   5.138   1.861   0.162
   64POPC   NTM 3280   5.209   1.833   0.294
   64POPC    CA 3281   5.357   1.890   0.282
   64POPC    CB 3282   5.352   2.045   0.264
   64POPC    OA 3283   5.286   2.104   0.377
   64POPC     P 3284   5.288   2.258   0.397
   64POPC    OB 3285   5.151   2.291   0.364
   64POPC    OC 3286   5.397   2.319   0.321
   64POPC    OD 3287   5.309   2.272   0.552
   64POPC    CC 3288   5.376   2.181   0.636
   64POPC    CD 3289   5.287   2.075   0.697
   64POPC    OE 3290   5.206   2.137   0.794
   64POPC   C1A 3291   5.099   2.066   0.831
   64POPC    OF 3292   5.060   1.959   0.784
   64POPC   C1B 3293   5.024   2.154   0.929
   64POPC   C1C 3294   4.902   2.090   1.002
   64POPC   C1D 3295   4.953   2.002   1.116
   64POPC   C1E 3296   4.849   1.964   1.219
   64POPC   C1F 3297   4.894   1.853   1.316
   64POPC   C1G 3298   4.787   1.849   1.430
   64POPC   C1H 3299   4.843   1.768   1.550
   64POPC   C1I 3300   4.719   1.755   1.638
   64POPC   C1J 3301   4.708   1.794   1.763
   64POPC   C1K 3302   4.803   1.869   1.846
   64POPC   C1L 3303   4.783   1.871   2.003
   64POPC   C1M 3304   4.819   1.730   2.052
   64POPC   C1N 3305   4.832   1.713   2.205
   64POPC   C1O 3306   4.727   1.785   2.296
   64POPC   C1P 3307   4.732   1.752   2.438
   64POPC   C1Q 3308   4.847   1.821   2.515
   64POPC   C1R 3309   4.861   1.762   2.661
   64POPC    CE 3310   5.364   1.957   0.746
   64POPC    OG 3311   5.456   1.992   0.850
   64POPC   C2A 3312   5.427   1.957   0.973
   64POPC    OH 3313   5.334   1.885   1.008
   64POPC   C2B 3314   5.526   2.016   1.069
   64POPC   C2C 3315   5.456   2.043   1.205
   64POPC   C2D 3316   5.540   2.122   1.302
   64POPC   C2E 3317   5.475   2.149   1.445
   64POPC   C2F 3318   5.562   2.226   1.549
   64POPC   C2G 3319   5.489   2.243   1.687
   64POPC   C2H 3320   5.568   2.336   1.781
   64POPC   C2I 3321   5.491   2.350   1.916
   64POPC   C2J 3322   5.551   2.460   2.004
   64POPC   C2K 3323   5.453   2.478   2.119
   64POPC   C2L 3324   5.508   2.575   2.224
   64POPC   C2M 3325   5.397   2.640   2.309
   64POPC   C2N 3326   5.459   2.703   2.431
   64POPC   C2O 3327   5.356   2.776   2.518
   64POPC   C2P 3328   5.420   2.847   2.636
    1POPC   CN1 3329   3.020   4.276   5.779
    1POPC   CN2 3330   2.832   4.332   5.639
    1POPC   CN3 3331   2.829   4.361   5.890
    1POPC   NTM 3332   2.873   4.273   5.773
    1POPC    CA 3333   2.820   4.126   5.800
    1POPC    CB 3334   2.663   4.126   5.801
    1POPC    OA 3335   2.615   4.174   5.675
    1POPC     P 3336   2.464   4.161   5.640
    1POPC    OB 3337   2.424   4.300   5.649
    1POPC    OC 3338   2.399   4.061   5.723
    1POPC    OD 3339   2.468   4.118   5.488
    1POPC    CC 3340   2.569   4.045   5.425
    1POPC    CD 3341   2.679   4.129   5.363
    1POPC    OE 3342   2.625   4.193   5.249
    1POPC   C1A 3343   2.696   4.297   5.204
    1POPC    OF 3344   2.796   4.347   5.256
    1POPC   C1B 3345   2.616   4.353   5.089
    1POPC   C1C 3346   2.684   4.467   5.005
    1POPC   C1D 3347   2.786   4.404   4.910
    1POPC   C1E 3348   2.832   4.495   4.798
    1POPC   C1F 3349   2.954   4.441   4.720
    1POPC   C1G 3350   2.967   4.531   4.592
    1POPC   C1H 3351   3.062   4.463   4.491
    1POPC   C1I 3352   3.081   4.575   4.387
    1POPC   C1J 3353   3.055   4.566   4.259
    1POPC   C1K 3354   2.992   4.457   4.183
    1POPC   C1L 3355   3.007   4.455   4.026
    1POPC   C1M 3356   3.153   4.419   3.997
    1POPC   C1N 3357   3.187   4.385   3.850
    1POPC   C1O 3358   3.122   4.474   3.738
    1POPC   C1P 3359   3.171   4.450   3.603
    1POPC   C1Q 3360   3.114   4.322   3.536
    1POPC   C1R 3361   3.189   4.291   3.401
    1POPC    CE 3362   2.803   4.052   5.338
    1POPC    OG 3363   2.783   3.944   5.245
    1POPC   C2A 3364   2.830   3.957   5.123
    1POPC    OH 3365   2.903   4.048   5.083
    1POPC   C2B 3366   2.784   3.843   5.037
    1POPC   C2C 3367   2.770   3.893   4.890
    1POPC   C2D 3368   2.704   3.793   4.799
    1POPC   C2E 3369   2.692   3.835   4.645
    1POPC   C2F 3370   2.629   3.732   4.548
    1POPC   C2G 3371   2.625   3.784   4.400
    1POPC   C2H 3372   2.545   3.688   4.309
    1POPC   C2I 3373   2.543   3.745   4.164
    1POPC   C2J 3374   2.445   3.668   4.074
    1POPC   C2K 3375   2.437   3.749   3.945
    1POPC   C2L 3376   2.353   3.675   3.839
    1POPC   C2M 3377   2.295   3.770   3.734
    1POPC   C2N 3378   2.247   3.688   3.616
    1POPC   C2O 3379   2.181   3.775   3.508
    1POPC   C2P 3380   2.125   3.692   3.394
    2POPC   CN1 3381   3.220   3.494   5.745
    2POPC   CN2 3382   3.064   3.600   5.594
    2POPC   CN3 3383   3.073   3.654   5.841
    2POPC   NTM 3384   3.081   3.544   5.735
    2POPC    CA 3385   2.978   3.430   5.774
    2POPC    CB 3386   2.832   3.487   5.771
    2POPC    OA 3387   2.805   3.535   5.638
    2POPC     P 3388   2.659   3.575   5.599
    2POPC    OB 3389   2.672   3.719   5.594
    2POPC    OC 3390   2.562   3.515   5.690
    2POPC    OD 3391   2.646   3.518   5.453
    2POPC    CC 3392   2.714   3.406   5.401
    2POPC    CD 3393   2.846   3.438   5.334
    2POPC    OE 3394   2.819   3.505   5.213
    2POPC   C1A 3395   2.922   3.571   5.161
    2POPC    OF 3396   3.034   3.586   5.211
    2POPC   C1B 3397   2.869   3.640   5.037
    2POPC   C1C 3398   2.973   3.712   4.946
    2POPC   C1D 3399   3.045   3.607   4.860
    2POPC   C1E 3400   3.120   3.663   4.741
    2POPC   C1F 3401   3.214   3.561   4.673
    2POPC   C1G 3402   3.258   3.627   4.538
    2POPC   C1H 3403   3.321   3.519   4.448
    2POPC   C1I 3404   3.379   3.604   4.334
    2POPC   C1J 3405   3.351   3.592   4.207
    2POPC   C1K 3406   3.253   3.506   4.140
    2POPC   C1L 3407   3.265   3.483   3.984
    2POPC   C1M 3408   3.388   3.393   3.964
    2POPC   C1N 3409   3.407   3.335   3.822
    2POPC   C1O 3410   3.378   3.428   3.700
    2POPC   C1P 3411   3.414   3.375   3.569
    2POPC   C1Q 3412   3.315   3.270   3.514
    2POPC   C1R 3413   3.372   3.199   3.384
    2POPC    CE 3414   2.934   3.319   5.321
    2POPC    OG 3415   2.876   3.217   5.239
    2POPC   C2A 3416   2.924   3.200   5.118
    2POPC    OH 3417   3.024   3.253   5.072
    2POPC   C2B 3418   2.840   3.102   5.042
    2POPC   C2C 3419   2.843   3.137   4.891
    2POPC   C2D 3420   2.746   3.059   4.808
    2POPC   C2E 3421   2.749   3.087   4.650
    2POPC   C2F 3422   2.653   3.004   4.562
    2POPC   C2G 3423   2.667   3.038   4.409
    2POPC   C2H 3424   2.557   2.969   4.326
    2POPC   C2I 3425   2.576   3.007   4.175
    2POPC   C2J 3426   2.456   2.962   4.090
    2POPC   C2K 3427   2.477   3.026   3.954
    2POPC   C2L 3428   2.372   2.977   3.853
    2POPC   C2M 3429   2.352   3.075   3.737
    2POPC   C2N 3430   2.277   3.004   3.626
    2POPC   C2O 3431   2.247   3.097   3.508
    2POPC   C2P 3432   2.164   3.029   3.400
    3POPC   CN1 3433   2.589   6.160   5.762
    3POPC   CN2 3434   2.419   6.238   5.610
    3POPC   CN3 3435   2.416   6.290   5.857
    3POPC   NTM 3436   2.444   6.185   5.750
    3POPC    CA 3437   2.363   6.054   5.787
    3POPC    CB 3438   2.209   6.085   5.782
    3POPC    OA 3439   2.175   6.129   5.650
    3POPC     P 3440   2.025   6.142   5.610
    3POPC    OB 3441   2.012   6.287   5.606
    3POPC    OC 3442   1.939   6.065   5.699
    3POPC    OD 3443   2.024   6.086   5.463
    3POPC    CC 3444   2.110   5.988   5.411
    3POPC    CD 3445   2.236   6.044   5.346
    3POPC    OE 3446   2.198   6.106   5.225
    3POPC   C1A 3447   2.289   6.190   5.175
    3POPC    OF 3448   2.396   6.224   5.226
    3POPC   C1B 3449   2.225   6.250   5.051
    3POPC   C1C 3450   2.316   6.340   4.962
    3POPC   C1D 3451   2.406   6.250   4.876
    3POPC   C1E 3452   2.471   6.319   4.758
    3POPC   C1F 3453   2.582   6.237   4.690
    3POPC   C1G 3454   2.615   6.311   4.556
    3POPC   C1H 3455   2.697   6.216   4.466
    3POPC   C1I 3456   2.741   6.312   4.353
    3POPC   C1J 3457   2.716   6.297   4.226
    3POPC   C1K 3458   2.635   6.196   4.156
    3POPC   C1L 3459   2.653   6.176   4.001
    3POPC   C1M 3460   2.790   6.110   3.981
    3POPC   C1N 3461   2.820   6.057   3.839
    3POPC   C1O 3462   2.777   6.146   3.717
    3POPC   C1P 3463   2.823   6.101   3.587
    3POPC   C1Q 3464   2.744   5.981   3.529
    3POPC   C1R 3465   2.814   5.923   3.400
    3POPC    CE 3466   2.343   5.942   5.333
    3POPC    OG 3467   2.304   5.832   5.249
    3POPC   C2A 3468   2.356   5.825   5.128
    3POPC    OH 3469   2.446   5.896   5.084
    3POPC   C2B 3470   2.291   5.715   5.051
    3POPC   C2C 3471   2.290   5.752   4.899
    3POPC   C2D 3472   2.208   5.658   4.815
    3POPC   C2E 3473   2.208   5.688   4.658
    3POPC   C2F 3474   2.129   5.590   4.567
    3POPC   C2G 3475   2.138   5.629   4.415
    3POPC   C2H 3476   2.044   5.542   4.330
    3POPC   C2I 3477   2.056   5.585   4.180
    3POPC   C2J 3478   1.947   5.520   4.093
    3POPC   C2K 3479   1.958   5.589   3.958
    3POPC   C2L 3480   1.864   5.523   3.855
    3POPC   C2M 3481   1.828   5.617   3.740
    3POPC   C2N 3482   1.768   5.536   3.627
    3POPC   C2O 3483   1.723   5.623   3.510
    3POPC   C2P 3484   1.654   5.542   3.400
    4POPC   CN1 3485   1.043   2.073   5.755
    4POPC   CN2 3486   1.173   2.207   5.600
    4POPC   CN3 3487   1.228   2.192   5.847
    4POPC   NTM 3488   1.117   2.201   5.742
    4POPC    CA 3489   1.023   2.322   5.781
    4POPC    CB 3490   1.104   2.456   5.775
    4POPC    OA 3491   1.154   2.474   5.641
    4POPC     P 3492   1.217   2.610   5.600
    4POPC    OB 3493   1.357   2.572   5.593
    4POPC    OC 3494   1.176   2.717   5.690
    4POPC    OD 3495   1.161   2.631   5.455
    4POPC    CC 3496   1.039   2.582   5.404
    4POPC    CD 3497   1.047   2.446   5.339
    4POPC    OE 3498   1.116   2.459   5.217
    4POPC   C1A 3499   1.163   2.346   5.166
    4POPC    OF 3500   1.159   2.233   5.217
    4POPC   C1B 3501   1.238   2.385   5.041
    4POPC   C1C 3502   1.290   2.269   4.950
    4POPC   C1D 3503   1.173   2.215   4.866
    4POPC   C1E 3504   1.214   2.130   4.748
    4POPC   C1F 3505   1.097   2.054   4.682
    4POPC   C1G 3506   1.152   1.998   4.547
    4POPC   C1H 3507   1.033   1.953   4.459
    4POPC   C1I 3508   1.106   1.880   4.345
    4POPC   C1J 3509   1.097   1.908   4.218
    4POPC   C1K 3510   1.029   2.018   4.150
    4POPC   C1L 3511   1.001   2.009   3.995
    4POPC   C1M 3512   0.892   1.902   3.977
    4POPC   C1N 3513   0.829   1.892   3.837
    4POPC   C1O 3514   0.924   1.903   3.713
    4POPC   C1P 3515   0.864   1.875   3.583
    4POPC   C1Q 3516   0.777   1.990   3.527
    4POPC   C1R 3517   0.696   1.944   3.400
    4POPC    CE 3518   0.915   2.379   5.329
    4POPC    OG 3519   0.823   2.453   5.247
    4POPC   C2A 3520   0.796   2.408   5.127
    4POPC    OH 3521   0.831   2.299   5.081
    4POPC   C2B 3522   0.713   2.506   5.051
    4POPC   C2C 3523   0.745   2.494   4.899
    4POPC   C2D 3524   0.683   2.603   4.815
    4POPC   C2E 3525   0.709   2.593   4.658
    4POPC   C2F 3526   0.642   2.701   4.569
    4POPC   C2G 3527   0.671   2.680   4.416
    4POPC   C2H 3528   0.621   2.798   4.332
    4POPC   C2I 3529   0.654   2.772   4.181
    4POPC   C2J 3530   0.628   2.896   4.095
    4POPC   C2K 3531   0.686   2.863   3.958
    4POPC   C2L 3532   0.654   2.973   3.856
    4POPC   C2M 3533   0.752   2.975   3.739
    4POPC   C2N 3534   0.695   3.059   3.627
    4POPC   C2O 3535   0.790   3.072   3.508
    4POPC   C2P 3536   0.735   3.164   3.400
    5POPC   CN1 3537   4.558   4.978   5.734
    5POPC   CN2 3538   4.391   4.849   5.616
    5POPC   CN3 3539   4.414   4.846   5.868
    5POPC   NTM 3540   4.488   4.848   5.734
    5POPC    CA 3541   4.592   4.729   5.734
    5POPC    CB 3542   4.516   4.592   5.743
    5POPC    OA 3543   4.428   4.581   5.630
    5POPC     P 3544   4.359   4.445   5.600
    5POPC    OB 3545   4.223   4.476   5.638
    5POPC    OC 3546   4.429   4.335   5.666
    5POPC    OD 3547   4.368   4.436   5.443
    5POPC    CC 3548   4.468   4.492   5.362
    5POPC    CD 3549   4.437   4.632   5.313
    5POPC    OE 3550   4.334   4.623   5.216
    5POPC   C1A 3551   4.272   4.737   5.190
    5POPC    OF 3552   4.288   4.846   5.246
    5POPC   C1B 3553   4.162   4.702   5.091
    5POPC   C1C 3554   4.082   4.821   5.029
    5POPC   C1D 3555   4.167   4.885   4.918
    5POPC   C1E 3556   4.090   4.975   4.824
    5POPC   C1F 3557   4.180   5.061   4.732
    5POPC   C1G 3558   4.084   5.122   4.624
    5POPC   C1H 3559   4.169   5.178   4.508
    5POPC   C1I 3560   4.063   5.255   4.427
    5POPC   C1J 3561   4.033   5.235   4.301
    5POPC   C1K 3562   4.081   5.132   4.208
    5POPC   C1L 3563   4.059   5.153   4.053
    5POPC   C1M 3564   4.155   5.265   4.011
    5POPC   C1N 3565   4.172   5.287   3.859
    5POPC   C1O 3566   4.043   5.279   3.770
    5POPC   C1P 3567   4.061   5.318   3.630
    5POPC   C1Q 3568   4.130   5.210   3.542
    5POPC   C1R 3569   4.166   5.268   3.400
    5POPC    CE 3570   4.558   4.706   5.268
    5POPC    OG 3571   4.622   4.641   5.156
    5POPC   C2A 3572   4.610   4.695   5.038
    5POPC    OH 3573   4.560   4.805   5.013
    5POPC   C2B 3574   4.669   4.605   4.933
    5POPC   C2C 3575   4.591   4.625   4.799
    5POPC   C2D 3576   4.627   4.524   4.693
    5POPC   C2E 3577   4.555   4.543   4.552
    5POPC   C2F 3578   4.594   4.444   4.439
    5POPC   C2G 3579   4.519   4.473   4.304
    5POPC   C2H 3580   4.544   4.363   4.201
    5POPC   C2I 3581   4.466   4.397   4.069
    5POPC   C2J 3582   4.468   4.279   3.970
    5POPC   C2K 3583   4.370   4.318   3.861
    5POPC   C2L 3584   4.372   4.215   3.746
    5POPC   C2M 3585   4.242   4.216   3.664
    5POPC   C2N 3586   4.265   4.142   3.535
    5POPC   C2O 3587   4.139   4.132   3.449
    5POPC   C2P 3588   4.160   4.050   3.323
    6POPC   CN1 3589   2.786   3.853   5.760
    6POPC   CN2 3590   2.608   3.935   5.619
    6POPC   CN3 3591   2.600   3.949   5.872
    6POPC   NTM 3592   2.639   3.865   5.751
    6POPC    CA 3593   2.572   3.722   5.767
    6POPC    CB 3594   2.416   3.737   5.765
    6POPC    OA 3595   2.377   3.796   5.640
    6POPC     P 3596   2.226   3.800   5.600
    6POPC    OB 3597   2.199   3.941   5.617
    6POPC    OC 3598   2.150   3.701   5.676
    6POPC    OD 3599   2.231   3.765   5.447
    6POPC    CC 3600   2.327   3.687   5.382
    6POPC    CD 3601   2.446   3.764   5.327
    6POPC    OE 3602   2.402   3.840   5.217
    6POPC   C1A 3603   2.483   3.939   5.180
    6POPC    OF 3604   2.586   3.976   5.238
    6POPC   C1B 3605   2.413   4.009   5.066
    6POPC   C1C 3606   2.493   4.121   4.992
    6POPC   C1D 3607   2.592   4.054   4.895
    6POPC   C1E 3608   2.649   4.147   4.790
    6POPC   C1F 3609   2.768   4.088   4.712
    6POPC   C1G 3610   2.793   4.183   4.591
    6POPC   C1H 3611   2.884   4.113   4.488
    6POPC   C1I 3612   2.917   4.228   4.392
    6POPC   C1J 3613   2.894   4.229   4.263
    6POPC   C1K 3614   2.824   4.132   4.179
    6POPC   C1L 3615   2.843   4.138   4.022
    6POPC   C1M 3616   2.986   4.090   3.995
    6POPC   C1N 3617   3.021   4.062   3.847
    6POPC   C1O 3618   2.969   4.163   3.739
    6POPC   C1P 3619   3.019   4.143   3.604
    6POPC   C1Q 3620   2.953   4.025   3.528
    6POPC   C1R 3621   3.028   3.995   3.393
    6POPC    CE 3622   2.564   3.678   5.301
    6POPC    OG 3623   2.536   3.578   5.201
    6POPC   C2A 3624   2.588   3.594   5.082
    6POPC    OH 3625   2.670   3.680   5.049
    6POPC   C2B 3626   2.535   3.490   4.987
    6POPC   C2C 3627   2.530   3.549   4.843
    6POPC   C2D 3628   2.458   3.461   4.745
    6POPC   C2E 3629   2.454   3.514   4.594
    6POPC   C2F 3630   2.385   3.423   4.489
    6POPC   C2G 3631   2.390   3.484   4.344
    6POPC   C2H 3632   2.305   3.402   4.246
    6POPC   C2I 3633   2.312   3.467   4.104
    6POPC   C2J 3634   2.211   3.405   4.007
    6POPC   C2K 3635   2.214   3.493   3.884
    6POPC   C2L 3636   2.127   3.434   3.771
    6POPC   C2M 3637   2.081   3.540   3.670
    6POPC   C2N 3638   2.030   3.471   3.546
    6POPC   C2O 3639   1.975   3.569   3.443
    6POPC   C2P 3640   1.915   3.499   3.322
    7POPC   CN1 3641   0.612   2.903   5.767
    7POPC   CN2 3642   0.757   3.052   5.645
    7POPC   CN3 3643   0.758   3.039   5.897
    7POPC   NTM 3644   0.672   3.038   5.770
    7POPC    CA 3645   0.559   3.148   5.787
    7POPC    CB 3646   0.625   3.290   5.798
    7POPC    OA 3647   0.701   3.315   5.679
    7POPC     P 3648   0.757   3.458   5.653
    7POPC    OB 3649   0.898   3.435   5.677
    7POPC    OC 3650   0.685   3.558   5.731
    7POPC    OD 3651   0.733   3.476   5.498
    7POPC    CC 3652   0.631   3.416   5.422
    7POPC    CD 3653   0.668   3.282   5.361
    7POPC    OE 3654   0.761   3.305   5.258
    7POPC   C1A 3655   0.830   3.198   5.218
    7POPC    OF 3656   0.827   3.085   5.268
    7POPC   C1B 3657   0.926   3.248   5.113
    7POPC   C1C 3658   1.010   3.140   5.037
    7POPC   C1D 3659   0.920   3.076   4.929
    7POPC   C1E 3660   0.995   2.998   4.823
    7POPC   C1F 3661   0.904   2.911   4.734
    7POPC   C1G 3662   0.994   2.864   4.614
    7POPC   C1H 3663   0.904   2.809   4.502
    7POPC   C1I 3664   1.008   2.746   4.408
    7POPC   C1J 3665   1.025   2.776   4.281
    7POPC   C1K 3666   0.961   2.879   4.199
    7POPC   C1L 3667   0.970   2.870   4.042
    7POPC   C1M 3668   0.879   2.753   4.001
    7POPC   C1N 3669   0.851   2.739   3.850
    7POPC   C1O 3670   0.970   2.762   3.751
    7POPC   C1P 3671   0.943   2.731   3.611
    7POPC   C1Q 3672   0.858   2.837   3.537
    7POPC   C1R 3673   0.813   2.785   3.394
    7POPC    CE 3674   0.549   3.202   5.322
    7POPC    OG 3675   0.471   3.268   5.221
    7POPC   C2A 3676   0.476   3.222   5.098
    7POPC    OH 3677   0.532   3.118   5.062
    7POPC   C2B 3678   0.402   3.312   5.005
    7POPC   C2C 3679   0.468   3.307   4.864
    7POPC   C2D 3680   0.415   3.410   4.769
    7POPC   C2E 3681   0.476   3.407   4.621
    7POPC   C2F 3682   0.419   3.509   4.518
    7POPC   C2G 3683   0.484   3.493   4.376
    7POPC   C2H 3684   0.441   3.607   4.283
    7POPC   C2I 3685   0.509   3.588   4.143
    7POPC   C2J 3686   0.490   3.710   4.053
    7POPC   C2K 3687   0.580   3.687   3.933
    7POPC   C2L 3688   0.560   3.795   3.826
    7POPC   C2M 3689   0.681   3.810   3.733
    7POPC   C2N 3690   0.641   3.890   3.612
    7POPC   C2O 3691   0.758   3.915   3.516
    7POPC   C2P 3692   0.719   4.003   3.398
    8POPC   CN1 3693   3.988   2.109   5.680
    8POPC   CN2 3694   3.794   2.029   5.561
    8POPC   CN3 3695   3.796   2.065   5.812
    8POPC   NTM 3696   3.874   2.016   5.690
    8POPC    CA 3697   3.926   1.870   5.721
    8POPC    CB 3698   3.804   1.773   5.740
    8POPC    OA 3699   3.726   1.773   5.619
    8POPC     P 3700   3.613   1.668   5.600
    8POPC    OB 3701   3.496   1.753   5.614
    8POPC    OC 3702   3.631   1.554   5.690
    8POPC    OD 3703   3.629   1.627   5.449
    8POPC    CC 3704   3.749   1.628   5.375
    8POPC    CD 3705   3.776   1.758   5.301
    8POPC    OE 3706   3.685   1.768   5.195
    8POPC   C1A 3707   3.672   1.890   5.143
    8POPC    OF 3708   3.724   1.995   5.185
    8POPC   C1B 3709   3.565   1.879   5.037
    8POPC   C1C 3710   3.540   2.005   4.948
    8POPC   C1D 3711   3.651   2.012   4.841
    8POPC   C1E 3712   3.620   2.105   4.726
    8POPC   C1F 3713   3.742   2.134   4.635
    8POPC   C1G 3714   3.685   2.204   4.507
    8POPC   C1H 3715   3.792   2.203   4.396
    8POPC   C1I 3716   3.729   2.296   4.292
    8POPC   C1J 3717   3.703   2.265   4.167
    8POPC   C1K 3718   3.715   2.137   4.097
    8POPC   C1L 3719   3.714   2.134   3.940
    8POPC   C1M 3720   3.848   2.195   3.895
    8POPC   C1N 3721   3.882   2.180   3.745
    8POPC   C1O 3722   3.767   2.203   3.641
    8POPC   C1P 3723   3.808   2.206   3.501
    8POPC   C1Q 3724   3.837   2.066   3.440
    8POPC   C1R 3725   3.903   2.079   3.297
    8POPC    CE 3726   3.919   1.773   5.263
    8POPC    OG 3727   3.962   1.670   5.172
    8POPC   C2A 3728   3.980   1.702   5.046
    8POPC    OH 3729   3.977   1.816   4.999
    8POPC   C2B 3730   4.007   1.579   4.965
    8POPC   C2C 3731   3.953   1.600   4.820
    8POPC   C2D 3732   3.956   1.475   4.736
    8POPC   C2E 3733   3.906   1.491   4.585
    8POPC   C2F 3734   3.913   1.366   4.495
    8POPC   C2G 3735   3.864   1.395   4.348
    8POPC   C2H 3736   3.853   1.265   4.266
    8POPC   C2I 3737   3.804   1.300   4.122
    8POPC   C2J 3738   3.768   1.173   4.043
    8POPC   C2K 3739   3.700   1.224   3.916
    8POPC   C2L 3740   3.671   1.108   3.819
    8POPC   C2M 3741   3.558   1.140   3.721
    8POPC   C2N 3742   3.560   1.039   3.608
    8POPC   C2O 3743   3.446   1.060   3.509
    8POPC   C2P 3744   3.444   0.953   3.400
    9POPC   CN1 3745   0.810   3.709   5.773
    9POPC   CN2 3746   0.992   3.775   5.628
    9POPC   CN3 3747   1.015   3.759   5.880
    9POPC   NTM 3748   0.925   3.800   5.763
    9POPC    CA 3749   0.879   3.950   5.787
    9POPC    CB 3750   1.004   4.044   5.785
    9POPC    OA 3751   1.068   4.033   5.657
    9POPC     P 3752   1.180   4.134   5.618
    9POPC    OB 3753   1.297   4.048   5.628
    9POPC    OC 3754   1.173   4.254   5.700
    9POPC    OD 3755   1.149   4.162   5.467
    9POPC    CC 3756   1.023   4.158   5.405
    9POPC    CD 3757   0.985   4.023   5.347
    9POPC    OE 3758   1.065   4.002   5.232
    9POPC   C1A 3759   1.071   3.876   5.190
    9POPC    OF 3760   1.023   3.776   5.245
    9POPC   C1B 3761   1.167   3.876   5.073
    9POPC   C1C 3762   1.181   3.743   4.993
    9POPC   C1D 3763   1.059   3.729   4.899
    9POPC   C1E 3764   1.077   3.626   4.789
    9POPC   C1F 3765   0.946   3.593   4.714
    9POPC   C1G 3766   0.989   3.511   4.588
    9POPC   C1H 3767   0.870   3.506   4.488
    9POPC   C1I 3768   0.921   3.402   4.386
    9POPC   C1J 3769   0.934   3.423   4.257
    9POPC   C1K 3770   0.917   3.545   4.178
    9POPC   C1L 3771   0.901   3.535   4.022
    9POPC   C1M 3772   0.763   3.474   3.997
    9POPC   C1N 3773   0.713   3.477   3.850
    9POPC   C1O 3774   0.816   3.443   3.737
    9POPC   C1P 3775   0.761   3.430   3.603
    9POPC   C1Q 3776   0.728   3.564   3.534
    9POPC   C1R 3777   0.647   3.541   3.400
    9POPC    CE 3778   0.839   4.008   5.325
    9POPC    OG 3779   0.789   4.104   5.230
    9POPC   C2A 3780   0.758   4.062   5.110
    9POPC    OH 3781   0.754   3.945   5.072
    9POPC   C2B 3782   0.723   4.178   5.022
    9POPC   C2C 3783   0.762   4.145   4.875
    9POPC   C2D 3784   0.752   4.262   4.781
    9POPC   C2E 3785   0.786   4.233   4.628
    9POPC   C2F 3786   0.771   4.350   4.528
    9POPC   C2G 3787   0.804   4.308   4.380
    9POPC   C2H 3788   0.808   4.430   4.287
    9POPC   C2I 3789   0.842   4.383   4.142
    9POPC   C2J 3790   0.871   4.502   4.049
    9POPC   C2K 3791   0.925   4.440   3.920
    9POPC   C2L 3792   0.945   4.547   3.812
    9POPC   C2M 3793   1.047   4.504   3.705
    9POPC   C2N 3794   1.034   4.595   3.586
    9POPC   C2O 3795   1.137   4.564   3.477
    9POPC   C2P 3796   1.129   4.662   3.360
   10POPC   CN1 3797   6.213   5.360   5.705
   10POPC   CN2 3798   6.011   5.425   5.590
   10POPC   CN3 3799   6.032   5.428   5.842
   10POPC   NTM 3800   6.066   5.354   5.713
   10POPC    CA 3801   6.019   5.203   5.729
   10POPC    CB 3802   5.863   5.198   5.746
   10POPC    OA 3803   5.802   5.257   5.629
   10POPC     P 3804   5.649   5.243   5.608
   10POPC    OB 3805   5.607   5.379   5.635
   10POPC    OC 3806   5.594   5.133   5.687
   10POPC    OD 3807   5.639   5.215   5.453
   10POPC    CC 3808   5.735   5.152   5.373
   10POPC    CD 3809   5.836   5.246   5.310
   10POPC    OE 3810   5.771   5.319   5.209
   10POPC   C1A 3811   5.834   5.429   5.169
   10POPC    OF 3812   5.938   5.477   5.216
   10POPC   C1B 3813   5.743   5.495   5.068
   10POPC   C1C 3814   5.799   5.618   4.991
   10POPC   C1D 3815   5.893   5.569   4.880
   10POPC   C1E 3816   5.926   5.672   4.774
   10POPC   C1F 3817   6.041   5.631   4.680
   10POPC   C1G 3818   6.039   5.734   4.562
   10POPC   C1H 3819   6.125   5.679   4.446
   10POPC   C1I 3820   6.132   5.801   4.353
   10POPC   C1J 3821   6.094   5.805   4.227
   10POPC   C1K 3822   6.026   5.702   4.147
   10POPC   C1L 3823   6.025   5.716   3.990
   10POPC   C1M 3824   6.169   5.689   3.943
   10POPC   C1N 3825   6.189   5.671   3.791
   10POPC   C1O 3826   6.112   5.768   3.696
   10POPC   C1P 3827   6.148   5.760   3.555
   10POPC   C1Q 3828   6.088   5.638   3.481
   10POPC   C1R 3829   6.150   5.623   3.336
   10POPC    CE 3830   5.960   5.176   5.266
   10POPC    OG 3831   5.933   5.077   5.164
   10POPC   C2A 3832   5.967   5.105   5.041
   10POPC    OH 3833   6.034   5.201   5.003
   10POPC   C2B 3834   5.916   4.998   4.948
   10POPC   C2C 3835   5.886   5.062   4.809
   10POPC   C2D 3836   5.815   4.970   4.714
   10POPC   C2E 3837   5.786   5.027   4.568
   10POPC   C2F 3838   5.717   4.932   4.467
   10POPC   C2G 3839   5.697   4.999   4.326
   10POPC   C2H 3840   5.611   4.911   4.234
   10POPC   C2I 3841   5.594   4.982   4.096
   10POPC   C2J 3842   5.490   4.911   4.008
   10POPC   C2K 3843   5.467   5.004   3.890
   10POPC   C2L 3844   5.375   4.939   3.785
   10POPC   C2M 3845   5.305   5.042   3.696
   10POPC   C2N 3846   5.247   4.971   3.575
   10POPC   C2O 3847   5.169   5.066   3.484
   10POPC   C2P 3848   5.104   4.993   3.367
   11POPC   CN1 3849   0.298   3.460   5.672
   11POPC   CN2 3850   0.507   3.545   5.587
   11POPC   CN3 3851   0.449   3.548   5.833
   11POPC   NTM 3852   0.398   3.568   5.690
   11POPC    CA 3853   0.327   3.709   5.683
   11POPC    CB 3854   0.433   3.822   5.710
   11POPC    OA 3855   0.536   3.813   5.612
   11POPC     P 3856   0.641   3.928   5.600
   11POPC    OB 3857   0.758   3.862   5.654
   11POPC    OC 3858   0.592   4.050   5.662
   11POPC    OD 3859   0.658   3.943   5.444
   11POPC    CC 3860   0.560   3.915   5.347
   11POPC    CD 3861   0.562   3.774   5.293
   11POPC    OE 3862   0.677   3.759   5.213
   11POPC   C1A 3863   0.712   3.633   5.188
   11POPC    OF 3864   0.661   3.530   5.235
   11POPC   C1B 3865   0.840   3.641   5.108
   11POPC   C1C 3866   0.896   3.507   5.050
   11POPC   C1D 3867   0.816   3.470   4.925
   11POPC   C1E 3868   0.881   3.365   4.837
   11POPC   C1F 3869   0.787   3.308   4.728
   11POPC   C1G 3870   0.879   3.227   4.631
   11POPC   C1H 3871   0.801   3.197   4.501
   11POPC   C1I 3872   0.895   3.098   4.431
   11POPC   C1J 3873   0.948   3.113   4.311
   11POPC   C1K 3874   0.942   3.226   4.219
   11POPC   C1L 3875   0.980   3.205   4.068
   11POPC   C1M 3876   0.866   3.122   4.006
   11POPC   C1N 3877   0.867   3.109   3.852
   11POPC   C1O 3878   1.005   3.086   3.782
   11POPC   C1P 3879   1.000   3.056   3.639
   11POPC   C1Q 3880   0.974   3.180   3.549
   11POPC   C1R 3881   0.945   3.137   3.400
   11POPC    CE 3882   0.434   3.735   5.228
   11POPC    OG 3883   0.406   3.817   5.113
   11POPC   C2A 3884   0.421   3.764   4.994
   11POPC    OH 3885   0.445   3.646   4.969
   11POPC   C2B 3886   0.403   3.868   4.888
   11POPC   C2C 3887   0.492   3.833   4.765
   11POPC   C2D 3888   0.499   3.942   4.662
   11POPC   C2E 3889   0.584   3.909   4.531
   11POPC   C2F 3890   0.588   4.018   4.420
   11POPC   C2G 3891   0.673   3.973   4.295
   11POPC   C2H 3892   0.691   4.089   4.196
   11POPC   C2I 3893   0.777   4.040   4.075
   11POPC   C2J 3894   0.819   4.156   3.984
   11POPC   C2K 3895   0.920   4.096   3.886
   11POPC   C2L 3896   0.961   4.198   3.779
   11POPC   C2M 3897   1.096   4.166   3.716
   11POPC   C2N 3898   1.112   4.248   3.589
   11POPC   C2O 3899   1.248   4.227   3.523
   11POPC   C2P 3900   1.266   4.315   3.400
   12POPC   CN1 3901   1.155   4.724   5.764
   12POPC   CN2 3902   1.288   4.591   5.612
   12POPC   CN3 3903   1.284   4.549   5.862
   12POPC   NTM 3904   1.285   4.655   5.751
   12POPC    CA 3905   1.403   4.756   5.780
   12POPC    CB 3906   1.540   4.680   5.774
   12POPC    OA 3907   1.556   4.623   5.643
   12POPC     P 3908   1.693   4.563   5.600
   12POPC    OB 3909   1.660   4.421   5.602
   12POPC    OC 3910   1.800   4.613   5.684
   12POPC    OD 3911   1.706   4.611   5.451
   12POPC    CC 3912   1.651   4.728   5.396
   12POPC    CD 3913   1.513   4.712   5.337
   12POPC    OE 3914   1.526   4.637   5.218
   12POPC   C1A 3915   1.412   4.583   5.173
   12POPC    OF 3916   1.302   4.585   5.228
   12POPC   C1B 3917   1.451   4.502   5.051
   12POPC   C1C 3918   1.334   4.441   4.967
   12POPC   C1D 3919   1.273   4.551   4.879
   12POPC   C1E 3920   1.186   4.501   4.766
   12POPC   C1F 3921   1.103   4.611   4.697
   12POPC   C1G 3922   1.045   4.547   4.567
   12POPC   C1H 3923   0.992   4.659   4.474
   12POPC   C1I 3924   0.918   4.577   4.367
   12POPC   C1J 3925   0.942   4.580   4.238
   12POPC   C1K 3926   1.047   4.649   4.163
   12POPC   C1L 3927   1.031   4.667   4.008
   12POPC   C1M 3928   0.920   4.771   3.988
   12POPC   C1N 3929   0.902   4.826   3.845
   12POPC   C1O 3930   0.913   4.725   3.726
   12POPC   C1P 3931   0.878   4.777   3.594
   12POPC   C1Q 3932   0.988   4.865   3.530
   12POPC   C1R 3933   0.934   4.937   3.400
   12POPC    CE 3934   1.441   4.841   5.322
   12POPC    OG 3935   1.509   4.931   5.232
   12POPC   C2A 3936   1.458   4.949   5.113
   12POPC    OH 3937   1.349   4.908   5.073
   12POPC   C2B 3938   1.551   5.032   5.029
   12POPC   C2C 3939   1.535   4.991   4.879
   12POPC   C2D 3940   1.638   5.052   4.789
   12POPC   C2E 3941   1.625   5.018   4.633
   12POPC   C2F 3942   1.727   5.084   4.537
   12POPC   C2G 3943   1.701   5.045   4.386
   12POPC   C2H 3944   1.815   5.096   4.296
   12POPC   C2I 3945   1.785   5.054   4.148
   12POPC   C2J 3946   1.905   5.080   4.057
   12POPC   C2K 3947   1.870   5.013   3.925
   12POPC   C2L 3948   1.976   5.043   3.817
   12POPC   C2M 3949   1.978   4.939   3.705
   12POPC   C2N 3950   2.056   4.994   3.588
   12POPC   C2O 3951   2.068   4.893   3.474
   12POPC   C2P 3952   2.155   4.945   3.359
   13POPC   CN1 3953   0.204   4.713   5.695
   13POPC   CN2 3954   0.354   4.571   5.570
   13POPC   CN3 3955   0.326   4.553   5.821
   13POPC   NTM 3956   0.336   4.647   5.701
   13POPC    CA 3957   0.448   4.754   5.732
   13POPC    CB 3958   0.587   4.682   5.746
   13POPC    OA 3959   0.616   4.614   5.623
   13POPC     P 3960   0.758   4.554   5.600
   13POPC    OB 3961   0.729   4.413   5.613
   13POPC    OC 3962   0.856   4.616   5.689
   13POPC    OD 3963   0.785   4.589   5.449
   13POPC    CC 3964   0.734   4.698   5.378
   13POPC    CD 3965   0.602   4.671   5.307
   13POPC    OE 3966   0.628   4.585   5.198
   13POPC   C1A 3967   0.521   4.524   5.148
   13POPC    OF 3968   0.405   4.528   5.192
   13POPC   C1B 3969   0.573   4.433   5.039
   13POPC   C1C 3970   0.467   4.360   4.951
   13POPC   C1D 3971   0.412   4.460   4.847
   13POPC   C1E 3972   0.337   4.396   4.732
   13POPC   C1F 3973   0.259   4.497   4.645
   13POPC   C1G 3974   0.215   4.418   4.517
   13POPC   C1H 3975   0.170   4.518   4.409
   13POPC   C1I 3976   0.108   4.424   4.304
   13POPC   C1J 3977   0.145   4.416   4.178
   13POPC   C1K 3978   0.255   4.480   4.107
   13POPC   C1L 3979   0.254   4.483   3.949
   13POPC   C1M 3980   0.143   4.582   3.909
   13POPC   C1N 3981   0.139   4.621   3.760
   13POPC   C1O 3982   0.163   4.509   3.653
   13POPC   C1P 3983   0.140   4.547   3.514
   13POPC   C1Q 3984   0.254   4.633   3.452
   13POPC   C1R 3985   0.212   4.690   3.311
   13POPC    CE 3986   0.529   4.796   5.273
   13POPC    OG 3987   0.603   4.879   5.181
   13POPC   C2A 3988   0.564   4.884   5.056
   13POPC    OH 3989   0.460   4.835   5.011
   13POPC   C2B 3990   0.663   4.961   4.974
   13POPC   C2C 3991   0.663   4.905   4.829
   13POPC   C2D 3992   0.773   4.961   4.743
   13POPC   C2E 3993   0.775   4.912   4.591
   13POPC   C2F 3994   0.885   4.971   4.499
   13POPC   C2G 3995   0.875   4.918   4.351
   13POPC   C2H 3996   0.996   4.963   4.267
   13POPC   C2I 3997   0.982   4.906   4.122
   13POPC   C2J 3998   1.110   4.926   4.041
   13POPC   C2K 3999   1.089   4.846   3.913
   13POPC   C2L 4000   1.204   4.870   3.814
   13POPC   C2M 4001   1.220   4.755   3.713
   13POPC   C2N 4002   1.308   4.801   3.599
   13POPC   C2O 4003   1.334   4.690   3.497
   13POPC   C2P 4004   1.429   4.734   3.387
   14POPC   CN1 4005   4.097   4.766   5.719
   14POPC   CN2 4006   3.895   4.712   5.600
   14POPC   CN3 4007   3.907   4.718   5.853
   14POPC   NTM 4008   3.978   4.679   5.723
   14POPC    CA 4009   4.022   4.527   5.736
   14POPC    CB 4010   3.895   4.437   5.748
   14POPC    OA 4011   3.813   4.455   5.631
   14POPC     P 4012   3.693   4.359   5.605
   14POPC    OB 4013   3.583   4.449   5.634
   14POPC    OC 4014   3.708   4.235   5.681
   14POPC    OD 4015   3.702   4.335   5.450
   14POPC    CC 4016   3.819   4.338   5.372
   14POPC    CD 4017   3.852   4.474   5.312
   14POPC    OE 4018   3.758   4.502   5.211
   14POPC   C1A 4019   3.750   4.630   5.175
   14POPC    OF 4020   3.810   4.725   5.226
   14POPC   C1B 4021   3.639   4.637   5.072
   14POPC   C1C 4022   3.619   4.773   4.999
   14POPC   C1D 4023   3.727   4.787   4.890
   14POPC   C1E 4024   3.698   4.894   4.786
   14POPC   C1F 4025   3.818   4.926   4.695
   14POPC   C1G 4026   3.761   5.014   4.578
   14POPC   C1H 4027   3.865   5.019   4.464
   14POPC   C1I 4028   3.804   5.128   4.373
   14POPC   C1J 4029   3.772   5.113   4.247
   14POPC   C1K 4030   3.773   4.993   4.162
   14POPC   C1L 4031   3.767   5.008   4.006
   14POPC   C1M 4032   3.903   5.066   3.963
   14POPC   C1N 4033   3.931   5.067   3.811
   14POPC   C1O 4034   3.815   5.108   3.715
   14POPC   C1P 4035   3.850   5.125   3.575
   14POPC   C1Q 4036   3.869   4.992   3.497
   14POPC   C1R 4037   3.931   5.018   3.354
   14POPC    CE 4038   3.994   4.485   5.270
   14POPC    OG 4039   4.027   4.391   5.166
   14POPC   C2A 4040   4.042   4.436   5.045
   14POPC    OH 4041   4.045   4.555   5.011
   14POPC   C2B 4042   4.060   4.322   4.949
   14POPC   C2C 4043   4.002   4.363   4.810
   14POPC   C2D 4044   3.994   4.249   4.712
   14POPC   C2E 4045   3.941   4.285   4.566
   14POPC   C2F 4046   3.937   4.171   4.461
   14POPC   C2G 4047   3.885   4.219   4.321
   14POPC   C2H 4048   3.864   4.101   4.225
   14POPC   C2I 4049   3.811   4.155   4.088
   14POPC   C2J 4050   3.765   4.041   3.997
   14POPC   C2K 4051   3.696   4.109   3.879
   14POPC   C2L 4052   3.657   4.007   3.771
   14POPC   C2M 4053   3.543   4.057   3.682
   14POPC   C2N 4054   3.535   3.970   3.558
   14POPC   C2O 4055   3.419   4.008   3.467
   14POPC   C2P 4056   3.407   3.915   3.347
   15POPC   CN1 4057   5.111   6.165   5.757
   15POPC   CN2 4058   4.930   6.207   5.602
   15POPC   CN3 4059   4.914   6.259   5.850
   15POPC   NTM 4060   4.964   6.160   5.744
   15POPC    CA 4061   4.911   6.016   5.781
   15POPC    CB 4062   4.754   6.015   5.775
   15POPC    OA 4063   4.713   6.050   5.642
   15POPC     P 4064   4.564   6.033   5.600
   15POPC    OB 4065   4.523   6.172   5.594
   15POPC    OC 4066   4.495   5.940   5.689
   15POPC    OD 4067   4.576   5.976   5.454
   15POPC    CC 4068   4.681   5.898   5.403
   15POPC    CD 4069   4.793   5.977   5.339
   15POPC    OE 4070   4.745   6.030   5.217
   15POPC   C1A 4071   4.818   6.129   5.167
   15POPC    OF 4072   4.915   6.185   5.219
   15POPC   C1B 4073   4.745   6.174   5.042
   15POPC   C1C 4074   4.816   6.280   4.953
   15POPC   C1D 4075   4.924   6.209   4.869
   15POPC   C1E 4076   4.975   6.290   4.751
   15POPC   C1F 4077   5.101   6.231   4.685
   15POPC   C1G 4078   5.120   6.309   4.551
   15POPC   C1H 4079   5.220   6.232   4.461
   15POPC   C1I 4080   5.245   6.334   4.349
   15POPC   C1J 4081   5.225   6.313   4.221
   15POPC   C1K 4082   5.168   6.197   4.152
   15POPC   C1L 4083   5.190   6.180   3.997
   15POPC   C1M 4084   5.338   6.143   3.979
   15POPC   C1N 4085   5.380   6.097   3.838
   15POPC   C1O 4086   5.321   6.174   3.715
   15POPC   C1P 4087   5.377   6.138   3.585
   15POPC   C1Q 4088   5.324   6.004   3.528
   15POPC   C1R 4089   5.406   5.961   3.400
   15POPC    CE 4090   4.919   5.899   5.328
   15POPC    OG 4091   4.904   5.783   5.244
   15POPC   C2A 4092   4.957   5.785   5.125
   15POPC    OH 4093   5.032   5.873   5.080
   15POPC   C2B 4094   4.917   5.663   5.048
   15POPC   C2C 4095   4.911   5.699   4.896
   15POPC   C2D 4096   4.851   5.590   4.811
   15POPC   C2E 4097   4.846   5.618   4.654
   15POPC   C2F 4098   4.789   5.505   4.564
   15POPC   C2G 4099   4.792   5.543   4.411
   15POPC   C2H 4100   4.718   5.439   4.326
   15POPC   C2I 4101   4.723   5.482   4.176
   15POPC   C2J 4102   4.631   5.396   4.089
   15POPC   C2K 4103   4.629   5.464   3.953
   15POPC   C2L 4104   4.551   5.380   3.850
   15POPC   C2M 4105   4.499   5.464   3.733
   15POPC   C2N 4106   4.457   5.372   3.621
   15POPC   C2O 4107   4.397   5.447   3.502
   15POPC   C2P 4108   4.347   5.353   3.393
   16POPC   CN1 4109   1.881   5.882   5.762
   16POPC   CN2 4110   1.690   5.906   5.615
   16POPC   CN3 4111   1.674   5.931   5.867
   16POPC   NTM 4112   1.736   5.853   5.751
   16POPC    CA 4113   1.709   5.699   5.774
   16POPC    CB 4114   1.555   5.672   5.770
   16POPC    OA 4115   1.504   5.712   5.642
   16POPC     P 4116   1.359   5.673   5.602
   16POPC    OB 4117   1.294   5.803   5.611
   16POPC    OC 4118   1.309   5.562   5.682
   16POPC    OD 4119   1.375   5.634   5.450
   16POPC    CC 4120   1.490   5.580   5.390
   16POPC    CD 4121   1.585   5.683   5.332
   16POPC    OE 4122   1.525   5.738   5.217
   16POPC   C1A 4123   1.578   5.853   5.176
   16POPC    OF 4124   1.666   5.920   5.232
   16POPC   C1B 4125   1.494   5.897   5.058
   16POPC   C1C 4126   1.543   6.022   4.978
   16POPC   C1D 4127   1.658   5.979   4.886
   16POPC   C1E 4128   1.691   6.078   4.776
   16POPC   C1F 4129   1.823   6.048   4.702
   16POPC   C1G 4130   1.824   6.141   4.576
   16POPC   C1H 4131   1.933   6.091   4.478
   16POPC   C1I 4132   1.936   6.206   4.376
   16POPC   C1J 4133   1.916   6.195   4.247
   16POPC   C1K 4134   1.876   6.078   4.167
   16POPC   C1L 4135   1.896   6.080   4.011
   16POPC   C1M 4136   2.048   6.071   3.987
   16POPC   C1N 4137   2.092   6.046   3.841
   16POPC   C1O 4138   2.017   6.123   3.728
   16POPC   C1P 4139   2.073   6.110   3.594
   16POPC   C1Q 4140   2.042   5.975   3.524
   16POPC   C1R 4141   2.126   5.959   3.391
   16POPC    CE 4142   1.722   5.630   5.312
   16POPC    OG 4143   1.724   5.521   5.217
   16POPC   C2A 4144   1.772   5.544   5.097
   16POPC    OH 4145   1.829   5.647   5.060
   16POPC   C2B 4146   1.750   5.425   5.009
   16POPC   C2C 4147   1.733   5.473   4.861
   16POPC   C2D 4148   1.689   5.364   4.767
   16POPC   C2E 4149   1.674   5.406   4.614
   16POPC   C2F 4150   1.634   5.295   4.514
   16POPC   C2G 4151   1.626   5.347   4.365
   16POPC   C2H 4152   1.567   5.241   4.272
   16POPC   C2I 4153   1.560   5.298   4.127
   16POPC   C2J 4154   1.481   5.206   4.033
   16POPC   C2K 4155   1.463   5.286   3.905
   16POPC   C2L 4156   1.397   5.200   3.795
   16POPC   C2M 4157   1.327   5.285   3.688
   16POPC   C2N 4158   1.298   5.198   3.568
   16POPC   C2O 4159   1.222   5.273   3.459
   16POPC   C2P 4160   1.185   5.183   3.341
   17POPC   CN1 4161   5.496   2.141   5.749
   17POPC   CN2 4162   5.327   2.026   5.620
   17POPC   CN3 4163   5.332   2.022   5.873
   17POPC   NTM 4164   5.415   2.018   5.744
   17POPC    CA 4165   5.509   1.891   5.751
   17POPC    CB 4166   5.421   1.761   5.754
   17POPC    OA 4167   5.340   1.756   5.635
   17POPC     P 4168   5.262   1.627   5.600
   17POPC    OB 4169   5.126   1.670   5.629
   17POPC    OC 4170   5.317   1.511   5.670
   17POPC    OD 4171   5.281   1.616   5.444
   17POPC    CC 4172   5.390   1.664   5.370
   17POPC    CD 4173   5.375   1.806   5.319
   17POPC    OE 4174   5.279   1.805   5.216
   17POPC   C1A 4175   5.228   1.924   5.186
   17POPC    OF 4176   5.249   2.032   5.243
   17POPC   C1B 4177   5.123   1.898   5.080
   17POPC   C1C 4178   5.058   2.023   5.013
   17POPC   C1D 4179   5.155   2.080   4.908
   17POPC   C1E 4180   5.093   2.176   4.809
   17POPC   C1F 4181   5.195   2.253   4.724
   17POPC   C1G 4182   5.113   2.322   4.610
   17POPC   C1H 4183   5.210   2.371   4.499
   17POPC   C1I 4184   5.117   2.456   4.412
   17POPC   C1J 4185   5.094   2.438   4.284
   17POPC   C1K 4186   5.139   2.332   4.194
   17POPC   C1L 4187   5.130   2.353   4.038
   17POPC   C1M 4188   5.238   2.457   4.003
   17POPC   C1N 4189   5.266   2.477   3.853
   17POPC   C1O 4190   5.144   2.480   3.755
   17POPC   C1P 4191   5.174   2.516   3.617
   17POPC   C1Q 4192   5.240   2.403   3.534
   17POPC   C1R 4193   5.291   2.457   3.395
   17POPC    CE 4194   5.505   1.869   5.283
   17POPC    OG 4195   5.571   1.798   5.176
   17POPC   C2A 4196   5.571   1.853   5.057
   17POPC    OH 4197   5.533   1.967   5.029
   17POPC   C2B 4198   5.629   1.758   4.956
   17POPC   C2C 4199   5.563   1.784   4.818
   17POPC   C2D 4200   5.597   1.681   4.714
   17POPC   C2E 4201   5.537   1.704   4.568
   17POPC   C2F 4202   5.575   1.602   4.458
   17POPC   C2G 4203   5.511   1.638   4.318
   17POPC   C2H 4204   5.535   1.526   4.216
   17POPC   C2I 4205   5.469   1.565   4.080
   17POPC   C2J 4206   5.467   1.448   3.981
   17POPC   C2K 4207   5.381   1.495   3.865
   17POPC   C2L 4208   5.382   1.392   3.751
   17POPC   C2M 4209   5.259   1.404   3.660
   17POPC   C2N 4210   5.285   1.327   3.532
   17POPC   C2O 4211   5.164   1.328   3.438
   17POPC   C2P 4212   5.187   1.244   3.314
   18POPC   CN1 4213   0.808   0.664   5.736
   18POPC   CN2 4214   0.902   0.831   5.589
   18POPC   CN3 4215   0.953   0.822   5.837
   18POPC   NTM 4216   0.846   0.807   5.728
   18POPC    CA 4217   0.723   0.899   5.767
   18POPC    CB 4218   0.768   1.049   5.767
   18POPC    OA 4219   0.816   1.083   5.636
   18POPC     P 4220   0.843   1.232   5.600
   18POPC    OB 4221   0.988   1.231   5.596
   18POPC    OC 4222   0.774   1.322   5.692
   18POPC    OD 4223   0.788   1.242   5.453
   18POPC    CC 4224   0.683   1.167   5.398
   18POPC    CD 4225   0.727   1.039   5.330
   18POPC    OE 4226   0.794   1.073   5.210
   18POPC   C1A 4227   0.868   0.977   5.158
   18POPC    OF 4228   0.892   0.866   5.206
   18POPC   C1B 4229   0.935   1.038   5.036
   18POPC   C1C 4230   1.017   0.942   4.944
   18POPC   C1D 4231   0.919   0.863   4.856
   18POPC   C1E 4232   0.983   0.795   4.737
   18POPC   C1F 4233   0.891   0.694   4.665
   18POPC   C1G 4234   0.962   0.658   4.531
   18POPC   C1H 4235   0.860   0.587   4.437
   18POPC   C1I 4236   0.952   0.538   4.324
   18POPC   C1J 4237   0.940   0.568   4.197
   18POPC   C1K 4238   0.847   0.659   4.130
   18POPC   C1L 4239   0.827   0.648   3.974
   18POPC   C1M 4240   0.749   0.518   3.950
   18POPC   C1N 4241   0.694   0.497   3.807
   18POPC   C1O 4242   0.787   0.535   3.687
   18POPC   C1P 4243   0.739   0.497   3.555
   18POPC   C1Q 4244   0.626   0.589   3.500
   18POPC   C1R 4245   0.563   0.527   3.368
   18POPC    CE 4246   0.616   0.941   5.314
   18POPC    OG 4247   0.511   0.992   5.230
   18POPC   C2A 4248   0.499   0.945   5.109
   18POPC    OH 4249   0.562   0.850   5.061
   18POPC   C2B 4250   0.396   1.022   5.032
   18POPC   C2C 4251   0.434   1.024   4.881
   18POPC   C2D 4252   0.349   1.116   4.799
   18POPC   C2E 4253   0.379   1.118   4.642
   18POPC   C2F 4254   0.290   1.208   4.553
   18POPC   C2G 4255   0.327   1.200   4.401
   18POPC   C2H 4256   0.251   1.304   4.318
   18POPC   C2I 4257   0.293   1.292   4.168
   18POPC   C2J 4258   0.238   1.408   4.084
   18POPC   C2K 4259   0.307   1.396   3.949
   18POPC   C2L 4260   0.250   1.498   3.849
   18POPC   C2M 4261   0.348   1.528   3.734
   18POPC   C2N 4262   0.273   1.599   3.623
   18POPC   C2O 4263   0.365   1.639   3.508
   18POPC   C2P 4264   0.291   1.717   3.400
   19POPC   CN1 4265   4.346   0.552   5.680
   19POPC   CN2 4266   4.566   0.539   5.583
   19POPC   CN3 4267   4.527   0.547   5.833
   19POPC   NTM 4268   4.484   0.600   5.696
   19POPC    CA 4269   4.487   0.758   5.701
   19POPC    CB 4270   4.634   0.808   5.726
   19POPC    OA 4271   4.718   0.760   5.619
   19POPC     P 4272   4.863   0.814   5.605
   19POPC    OB 4273   4.938   0.698   5.647
   19POPC    OC 4274   4.879   0.940   5.677
   19POPC    OD 4275   4.877   0.833   5.450
   19POPC    CC 4276   4.774   0.861   5.359
   19POPC    CD 4277   4.707   0.739   5.299
   19POPC    OE 4278   4.798   0.680   5.209
   19POPC   C1A 4279   4.770   0.554   5.175
   19POPC    OF 4280   4.680   0.483   5.220
   19POPC   C1B 4281   4.884   0.510   5.085
   19POPC   C1C 4282   4.869   0.370   5.017
   19POPC   C1D 4283   4.774   0.384   4.896
   19POPC   C1E 4284   4.780   0.269   4.798
   19POPC   C1F 4285   4.665   0.270   4.694
   19POPC   C1G 4286   4.705   0.164   4.586
   19POPC   C1H 4287   4.616   0.184   4.461
   19POPC   C1I 4288   4.650   0.059   4.379
   19POPC   C1J 4289   4.698   0.057   4.257
   19POPC   C1K 4290   4.741   0.168   4.171
   19POPC   C1L 4291   4.758   0.144   4.016
   19POPC   C1M 4292   4.616   0.128   3.960
   19POPC   C1N 4293   4.604   0.129   3.806
   19POPC   C1O 4294   4.712   0.050   3.724
   19POPC   C1P 4295   4.687   0.038   3.581
   19POPC   C1Q 4296   4.717   0.167   3.500
   19POPC   C1R 4297   4.665   0.154   3.351
   19POPC    CE 4298   4.573   0.769   5.241
   19POPC    OG 4299   4.581   0.864   5.133
   19POPC   C2A 4300   4.565   0.820   5.011
   19POPC    OH 4301   4.530   0.706   4.978
   19POPC   C2B 4302   4.592   0.929   4.912
   19POPC   C2C 4303   4.649   0.867   4.781
   19POPC   C2D 4304   4.700   0.969   4.683
   19POPC   C2E 4305   4.755   0.911   4.544
   19POPC   C2F 4306   4.804   1.014   4.439
   19POPC   C2G 4307   4.852   0.946   4.306
   19POPC   C2H 4308   4.918   1.048   4.212
   19POPC   C2I 4309   4.965   0.975   4.082
   19POPC   C2J 4310   5.052   1.066   3.994
   19POPC   C2K 4311   5.109   0.975   3.886
   19POPC   C2L 4312   5.188   1.055   3.781
   19POPC   C2M 4313   5.290   0.970   3.706
   19POPC   C2N 4314   5.335   1.045   3.583
   19POPC   C2O 4315   5.443   0.969   3.505
   19POPC   C2P 4316   5.495   1.049   3.386
   20POPC   CN1 4317   6.310   2.064   5.747
   20POPC   CN2 4318   6.104   2.055   5.621
   20POPC   CN3 4319   6.110   2.044   5.874
   20POPC   NTM 4320   6.177   2.000   5.743
   20POPC    CA 4321   6.192   1.843   5.747
   20POPC    CB 4322   6.050   1.776   5.751
   20POPC    OA 4323   5.977   1.816   5.634
   20POPC     P 4324   5.842   1.746   5.600
   20POPC    OB 4325   5.749   1.852   5.632
   20POPC    OC 4326   5.832   1.617   5.668
   20POPC    OD 4327   5.851   1.730   5.444
   20POPC    CC 4328   5.968   1.716   5.368
   20POPC    CD 4329   6.028   1.846   5.318
   20POPC    OE 4330   5.943   1.897   5.217
   20POPC   C1A 4331   5.960   2.026   5.189
   20POPC    OF 4332   6.035   2.106   5.246
   20POPC   C1B 4333   5.855   2.059   5.085
   20POPC   C1C 4334   5.863   2.201   5.020
   20POPC   C1D 4335   5.973   2.201   4.914
   20POPC   C1E 4336   5.968   2.318   4.817
   20POPC   C1F 4337   6.094   2.332   4.729
   20POPC   C1G 4338   6.057   2.436   4.618
   20POPC   C1H 4339   6.164   2.429   4.506
   20POPC   C1I 4340   6.126   2.552   4.421
   20POPC   C1J 4341   6.096   2.551   4.294
   20POPC   C1K 4342   6.078   2.438   4.202
   20POPC   C1L 4343   6.079   2.463   4.046
   20POPC   C1M 4344   6.224   2.497   4.010
   20POPC   C1N 4345   6.257   2.502   3.859
   20POPC   C1O 4346   6.152   2.569   3.763
   20POPC   C1P 4347   6.195   2.588   3.625
   20POPC   C1Q 4348   6.191   2.458   3.540
   20POPC   C1R 4349   6.261   2.481   3.400
   20POPC    CE 4350   6.170   1.834   5.279
   20POPC    OG 4351   6.189   1.742   5.170
   20POPC   C2A 4352   6.216   1.790   5.052
   20POPC    OH 4353   6.241   1.908   5.025
   20POPC   C2B 4354   6.215   1.681   4.949
   20POPC   C2C 4355   6.169   1.739   4.812
   20POPC   C2D 4356   6.144   1.635   4.707
   20POPC   C2E 4357   6.102   1.689   4.563
   20POPC   C2F 4358   6.081   1.584   4.451
   20POPC   C2G 4359   6.043   1.649   4.313
   20POPC   C2H 4360   6.003   1.542   4.210
   20POPC   C2I 4361   5.965   1.612   4.076
   20POPC   C2J 4362   5.902   1.515   3.976
   20POPC   C2K 4363   5.850   1.601   3.862
   20POPC   C2L 4364   5.796   1.515   3.747
   20POPC   C2M 4365   5.695   1.589   3.659
   20POPC   C2N 4366   5.676   1.513   3.530
   20POPC   C2O 4367   5.571   1.577   3.439
   20POPC   C2P 4368   5.546   1.495   3.313
   21POPC   CN1 4369   2.051   1.734   5.766
   21POPC   CN2 4370   1.937   1.566   5.635
   21POPC   CN3 4371   1.935   1.567   5.889
   21POPC   NTM 4372   2.018   1.590   5.762
   21POPC    CA 4373   2.150   1.503   5.774
   21POPC    CB 4374   2.112   1.351   5.778
   21POPC    OA 4375   2.042   1.317   5.658
   21POPC     P 4376   2.014   1.168   5.624
   21POPC    OB 4377   1.871   1.162   5.649
   21POPC    OC 4378   2.104   1.080   5.698
   21POPC    OD 4379   2.040   1.162   5.470
   21POPC    CC 4380   2.128   1.244   5.397
   21POPC    CD 4381   2.067   1.371   5.342
   21POPC    OE 4382   1.980   1.335   5.237
   21POPC   C1A 4383   1.892   1.429   5.202
   21POPC    OF 4384   1.873   1.538   5.258
   21POPC   C1B 4385   1.806   1.367   5.095
   21POPC   C1C 4386   1.703   1.460   5.023
   21POPC   C1D 4387   1.778   1.545   4.919
   21POPC   C1E 4388   1.690   1.612   4.817
   21POPC   C1F 4389   1.762   1.719   4.731
   21POPC   C1G 4390   1.664   1.754   4.614
   21POPC   C1H 4391   1.742   1.831   4.505
   21POPC   C1I 4392   1.628   1.877   4.413
   21POPC   C1J 4393   1.617   1.851   4.285
   21POPC   C1K 4394   1.698   1.765   4.199
   21POPC   C1L 4395   1.687   1.779   4.042
   21POPC   C1M 4396   1.754   1.913   4.007
   21POPC   C1N 4397   1.778   1.939   3.857
   21POPC   C1O 4398   1.666   1.899   3.756
   21POPC   C1P 4399   1.685   1.941   3.618
   21POPC   C1Q 4400   1.788   1.857   3.539
   21POPC   C1R 4401   1.822   1.923   3.400
   21POPC    CE 4402   2.168   1.474   5.307
   21POPC    OG 4403   2.257   1.429   5.203
   21POPC   C2A 4404   2.243   1.479   5.083
   21POPC    OH 4405   2.168   1.572   5.052
   21POPC   C2B 4406   2.332   1.408   4.986
   21POPC   C2C 4407   2.266   1.407   4.845
   21POPC   C2D 4408   2.337   1.321   4.745
   21POPC   C2E 4409   2.276   1.320   4.598
   21POPC   C2F 4410   2.351   1.235   4.491
   21POPC   C2G 4411   2.283   1.245   4.349
   21POPC   C2H 4412   2.347   1.145   4.251
   21POPC   C2I 4413   2.276   1.158   4.112
   21POPC   C2J 4414   2.318   1.046   4.016
   21POPC   C2K 4415   2.224   1.058   3.897
   21POPC   C2L 4416   2.264   0.960   3.785
   21POPC   C2M 4417   2.147   0.927   3.691
   21POPC   C2N 4418   2.202   0.862   3.566
   21POPC   C2O 4419   2.091   0.820   3.469
   21POPC   C2P 4420   2.145   0.747   3.347
   22POPC   CN1 4421   5.533   4.546   5.705
   22POPC   CN2 4422   5.361   4.433   5.580
   22POPC   CN3 4423   5.353   4.457   5.831
   22POPC   NTM 4424   5.441   4.431   5.709
   22POPC    CA 4425   5.522   4.297   5.735
   22POPC    CB 4426   5.423   4.177   5.747
   22POPC    OA 4427   5.347   4.166   5.625
   22POPC     P 4428   5.259   4.041   5.600
   22POPC    OB 4429   5.127   4.099   5.616
   22POPC    OC 4430   5.300   3.930   5.685
   22POPC    OD 4431   5.285   4.011   5.448
   22POPC    CC 4432   5.402   4.040   5.376
   22POPC    CD 4433   5.402   4.176   5.308
   22POPC    OE 4434   5.312   4.172   5.201
   22POPC   C1A 4435   5.274   4.291   5.155
   22POPC    OF 4436   5.302   4.402   5.201
   22POPC   C1B 4437   5.172   4.263   5.046
   22POPC   C1C 4438   5.122   4.385   4.962
   22POPC   C1D 4439   5.230   4.420   4.858
   22POPC   C1E 4440   5.181   4.509   4.745
   22POPC   C1F 4441   5.295   4.567   4.658
   22POPC   C1G 4442   5.226   4.629   4.533
   22POPC   C1H 4443   5.332   4.656   4.424
   22POPC   C1I 4444   5.252   4.739   4.322
   22POPC   C1J 4445   5.233   4.708   4.196
   22POPC   C1K 4446   5.272   4.589   4.121
   22POPC   C1L 4447   5.273   4.593   3.963
   22POPC   C1M 4448   5.392   4.682   3.924
   22POPC   C1N 4449   5.430   4.682   3.774
   22POPC   C1O 4450   5.314   4.685   3.669
   22POPC   C1P 4451   5.354   4.702   3.530
   22POPC   C1Q 4452   5.412   4.575   3.464
   22POPC   C1R 4453   5.475   4.608   3.323
   22POPC    CE 4454   5.539   4.223   5.273
   22POPC    OG 4455   5.603   4.135   5.179
   22POPC   C2A 4456   5.615   4.175   5.055
   22POPC    OH 4457   5.589   4.288   5.012
   22POPC   C2B 4458   5.668   4.065   4.969
   22POPC   C2C 4459   5.611   4.081   4.824
   22POPC   C2D 4460   5.641   3.963   4.735
   22POPC   C2E 4461   5.590   3.976   4.584
   22POPC   C2F 4462   5.624   3.859   4.488
   22POPC   C2G 4463   5.571   3.883   4.342
   22POPC   C2H 4464   5.589   3.758   4.254
   22POPC   C2I 4465   5.534   3.788   4.111
   22POPC   C2J 4466   5.526   3.661   4.025
   22POPC   C2K 4467   5.450   3.701   3.900
   22POPC   C2L 4468   5.447   3.587   3.798
   22POPC   C2M 4469   5.330   3.599   3.699
   22POPC   C2N 4470   5.354   3.506   3.582
   22POPC   C2O 4471   5.239   3.507   3.482
   22POPC   C2P 4472   5.260   3.407   3.369
   23POPC   CN1 4473   5.641   3.276   5.755
   23POPC   CN2 4474   5.705   3.450   5.600
   23POPC   CN3 4475   5.761   3.459   5.847
   23POPC   NTM 4476   5.656   3.422   5.742
   23POPC    CA 4477   5.521   3.494   5.781
   23POPC    CB 4478   5.540   3.650   5.775
   23POPC    OA 4479   5.579   3.686   5.641
   23POPC     P 4480   5.581   3.836   5.600
   23POPC    OB 4481   5.724   3.859   5.593
   23POPC    OC 4482   5.499   3.917   5.690
   23POPC    OD 4483   5.522   3.832   5.455
   23POPC    CC 4484   5.430   3.738   5.404
   23POPC    CD 4485   5.493   3.617   5.339
   23POPC    OE 4486   5.550   3.658   5.217
   23POPC   C1A 4487   5.639   3.573   5.166
   23POPC    OF 4488   5.682   3.469   5.217
   23POPC   C1B 4489   5.692   3.640   5.041
   23POPC   C1C 4490   5.787   3.555   4.950
   23POPC   C1D 4491   5.702   3.458   4.866
   23POPC   C1E 4492   5.774   3.397   4.748
   23POPC   C1F 4493   5.698   3.280   4.682
   23POPC   C1G 4494   5.771   3.251   4.547
   23POPC   C1H 4495   5.681   3.162   4.459
   23POPC   C1I 4496   5.778   3.124   4.345
   23POPC   C1J 4497   5.758   3.147   4.218
   23POPC   C1K 4498   5.650   3.219   4.150
   23POPC   C1L 4499   5.629   3.199   3.995
   23POPC   C1M 4500   5.573   3.057   3.977
   23POPC   C1N 4501   5.520   3.023   3.836
   23POPC   C1O 4502   5.602   3.071   3.713
   23POPC   C1P 4503   5.559   3.021   3.583
   23POPC   C1Q 4504   5.432   3.091   3.527
   23POPC   C1R 4505   5.377   3.015   3.400
   23POPC    CE 4506   5.399   3.502   5.329
   23POPC    OG 4507   5.285   3.532   5.247
   23POPC   C2A 4508   5.279   3.480   5.127
   23POPC    OH 4509   5.356   3.394   5.081
   23POPC   C2B 4510   5.163   3.535   5.051
   23POPC   C2C 4511   5.197   3.538   4.899
   23POPC   C2D 4512   5.096   3.612   4.815
   23POPC   C2E 4513   5.123   3.613   4.658
   23POPC   C2F 4514   5.018   3.684   4.569
   23POPC   C2G 4515   5.054   3.677   4.416
   23POPC   C2H 4516   4.960   3.764   4.332
   23POPC   C2I 4517   5.000   3.754   4.181
   23POPC   C2J 4518   4.926   3.856   4.095
   23POPC   C2K 4519   4.993   3.850   3.958
   23POPC   C2L 4520   4.918   3.938   3.856
   23POPC   C2M 4521   5.007   3.980   3.739
   23POPC   C2N 4522   4.920   4.033   3.628
   23POPC   C2O 4523   5.002   4.083   3.508
   23POPC   C2P 4524   4.914   4.145   3.400
   24POPC   CN1 4525   3.796   3.410   5.766
   24POPC   CN2 4526   3.724   3.590   5.621
   24POPC   CN3 4527   3.747   3.617   5.872
   24POPC   NTM 4528   3.704   3.525   5.758
   24POPC    CA 4529   3.556   3.477   5.787
   24POPC    CB 4530   3.459   3.601   5.786
   24POPC    OA 4531   3.466   3.664   5.658
   24POPC     P 4532   3.363   3.774   5.620
   24POPC    OB 4533   3.447   3.892   5.625
   24POPC    OC 4534   3.245   3.767   5.706
   24POPC    OD 4535   3.330   3.740   5.470
   24POPC    CC 4536   3.333   3.614   5.411
   24POPC    CD 4537   3.467   3.577   5.348
   24POPC    OE 4538   3.483   3.656   5.232
   24POPC   C1A 4539   3.608   3.662   5.186
   24POPC    OF 4540   3.710   3.615   5.238
   24POPC   C1B 4541   3.603   3.756   5.067
   24POPC   C1C 4542   3.733   3.770   4.983
   24POPC   C1D 4543   3.745   3.648   4.890
   24POPC   C1E 4544   3.844   3.665   4.776
   24POPC   C1F 4545   3.876   3.533   4.702
   24POPC   C1G 4546   3.954   3.575   4.573
   24POPC   C1H 4547   3.957   3.456   4.475
   24POPC   C1I 4548   4.057   3.506   4.369
   24POPC   C1J 4549   4.032   3.517   4.240
   24POPC   C1K 4550   3.907   3.498   4.166
   24POPC   C1L 4551   3.913   3.480   4.009
   24POPC   C1M 4552   3.974   3.342   3.984
   24POPC   C1N 4553   3.967   3.290   3.838
   24POPC   C1O 4554   3.996   3.392   3.723
   24POPC   C1P 4555   4.006   3.336   3.589
   24POPC   C1Q 4556   3.870   3.300   3.525
   24POPC   C1R 4557   3.890   3.218   3.391
   24POPC    CE 4558   3.483   3.431   5.327
   24POPC    OG 4559   3.384   3.378   5.236
   24POPC   C2A 4560   3.422   3.346   5.115
   24POPC    OH 4561   3.538   3.343   5.074
   24POPC   C2B 4562   3.304   3.309   5.032
   24POPC   C2C 4563   3.332   3.346   4.883
   24POPC   C2D 4564   3.212   3.334   4.793
   24POPC   C2E 4565   3.236   3.365   4.639
   24POPC   C2F 4566   3.116   3.348   4.543
   24POPC   C2G 4567   3.152   3.380   4.393
   24POPC   C2H 4568   3.027   3.381   4.304
   24POPC   C2I 4569   3.069   3.413   4.157
   24POPC   C2J 4570   2.948   3.440   4.068
   24POPC   C2K 4571   3.005   3.493   3.937
   24POPC   C2L 4572   2.894   3.510   3.831
   24POPC   C2M 4573   2.932   3.611   3.722
   24POPC   C2N 4574   2.837   3.595   3.606
   24POPC   C2O 4575   2.864   3.698   3.495
   24POPC   C2P 4576   2.763   3.687   3.381
   25POPC   CN1 4577   4.348   2.431   5.754
   25POPC   CN2 4578   4.226   2.257   5.639
   25POPC   CN3 4579   4.239   2.270   5.891
   25POPC   NTM 4580   4.315   2.287   5.759
   25POPC    CA 4581   4.447   2.200   5.767
   25POPC    CB 4582   4.410   2.048   5.781
   25POPC    OA 4583   4.332   2.009   5.667
   25POPC     P 4584   4.302   1.859   5.641
   25POPC    OB 4585   4.161   1.855   5.675
   25POPC    OC 4586   4.396   1.774   5.714
   25POPC    OD 4587   4.319   1.846   5.485
   25POPC    CC 4588   4.403   1.924   5.404
   25POPC    CD 4589   4.339   2.049   5.347
   25POPC    OE 4590   4.246   2.009   5.249
   25POPC   C1A 4591   4.156   2.101   5.216
   25POPC    OF 4592   4.141   2.213   5.267
   25POPC   C1B 4593   4.064   2.034   5.116
   25POPC   C1C 4594   3.957   2.125   5.046
   25POPC   C1D 4595   4.027   2.205   4.934
   25POPC   C1E 4596   3.932   2.268   4.834
   25POPC   C1F 4597   3.999   2.370   4.740
   25POPC   C1G 4598   3.895   2.400   4.628
   25POPC   C1H 4599   3.966   2.472   4.510
   25POPC   C1I 4600   3.847   2.514   4.424
   25POPC   C1J 4601   3.828   2.482   4.298
   25POPC   C1K 4602   3.905   2.392   4.211
   25POPC   C1L 4603   3.884   2.400   4.055
   25POPC   C1M 4604   3.949   2.532   4.010
   25POPC   C1N 4605   3.965   2.551   3.857
   25POPC   C1O 4606   3.846   2.507   3.765
   25POPC   C1P 4607   3.858   2.543   3.625
   25POPC   C1Q 4608   3.956   2.454   3.544
   25POPC   C1R 4609   3.982   2.514   3.400
   25POPC    CE 4610   4.438   2.150   5.302
   25POPC    OG 4611   4.521   2.100   5.195
   25POPC   C2A 4612   4.499   2.144   5.074
   25POPC    OH 4613   4.423   2.236   5.043
   25POPC   C2B 4614   4.583   2.069   4.976
   25POPC   C2C 4615   4.509   2.062   4.839
   25POPC   C2D 4616   4.574   1.971   4.739
   25POPC   C2E 4617   4.504   1.963   4.595
   25POPC   C2F 4618   4.572   1.874   4.488
   25POPC   C2G 4619   4.497   1.877   4.350
   25POPC   C2H 4620   4.554   1.773   4.253
   25POPC   C2I 4621   4.476   1.780   4.118
   25POPC   C2J 4622   4.511   1.663   4.025
   25POPC   C2K 4623   4.411   1.670   3.911
   25POPC   C2L 4624   4.444   1.568   3.802
   25POPC   C2M 4625   4.322   1.531   3.716
   25POPC   C2N 4626   4.369   1.460   3.591
   25POPC   C2O 4627   4.253   1.414   3.503
   25POPC   C2P 4628   4.300   1.335   3.382
   26POPC   CN1 4629   1.499   5.002   5.697
   26POPC   CN2 4630   1.668   4.885   5.570
   26POPC   CN3 4631   1.641   4.857   5.820
   26POPC   NTM 4632   1.639   4.954   5.703
   26POPC    CA 4633   1.736   5.075   5.737
   26POPC    CB 4634   1.883   5.022   5.750
   26POPC    OA 4635   1.922   4.961   5.626
   26POPC     P 4636   2.071   4.922   5.602
   26POPC    OB 4637   2.061   4.777   5.611
   26POPC    OC 4638   2.159   4.994   5.694
   26POPC    OD 4639   2.093   4.963   5.453
   26POPC    CC 4640   2.028   5.067   5.384
   26POPC    CD 4641   1.902   5.024   5.311
   26POPC    OE 4642   1.939   4.945   5.201
   26POPC   C1A 4643   1.842   4.872   5.148
   26POPC    OF 4644   1.727   4.858   5.191
   26POPC   C1B 4645   1.906   4.791   5.037
   26POPC   C1C 4646   1.811   4.707   4.947
   26POPC   C1D 4647   1.743   4.801   4.845
   26POPC   C1E 4648   1.679   4.730   4.727
   26POPC   C1F 4649   1.588   4.822   4.642
   26POPC   C1G 4650   1.556   4.741   4.512
   26POPC   C1H 4651   1.498   4.837   4.406
   26POPC   C1I 4652   1.450   4.738   4.298
   26POPC   C1J 4653   1.488   4.738   4.173
   26POPC   C1K 4654   1.589   4.819   4.104
   26POPC   C1L 4655   1.589   4.826   3.947
   26POPC   C1M 4656   1.465   4.909   3.908
   26POPC   C1N 4657   1.456   4.951   3.759
   26POPC   C1O 4658   1.496   4.846   3.650
   26POPC   C1P 4659   1.469   4.885   3.512
   26POPC   C1Q 4660   1.570   4.986   3.454
   26POPC   C1R 4661   1.521   5.041   3.314
   26POPC    CE 4662   1.812   5.139   5.279
   26POPC    OG 4663   1.875   5.233   5.191
   26POPC   C2A 4664   1.836   5.236   5.066
   26POPC    OH 4665   1.740   5.175   5.018
   26POPC   C2B 4666   1.924   5.328   4.986
   26POPC   C2C 4667   1.932   5.277   4.839
   26POPC   C2D 4668   2.034   5.349   4.756
   26POPC   C2E 4669   2.044   5.304   4.603
   26POPC   C2F 4670   2.145   5.380   4.513
   26POPC   C2G 4671   2.143   5.329   4.364
   26POPC   C2H 4672   2.257   5.392   4.282
   26POPC   C2I 4673   2.251   5.338   4.136
   26POPC   C2J 4674   2.376   5.378   4.056
   26POPC   C2K 4675   2.367   5.299   3.926
   26POPC   C2L 4676   2.478   5.340   3.828
   26POPC   C2M 4677   2.509   5.231   3.725
   26POPC   C2N 4678   2.591   5.291   3.613
   26POPC   C2O 4679   2.632   5.187   3.508
   26POPC   C2P 4680   2.722   5.246   3.400
   27POPC   CN1 4681   5.152   5.326   5.753
   27POPC   CN2 4682   5.171   5.137   5.604
   27POPC   CN3 4683   5.138   5.112   5.854
   27POPC   NTM 4684   5.208   5.190   5.743
   27POPC    CA 4685   5.363   5.192   5.774
   27POPC    CB 4686   5.419   5.046   5.770
   27POPC    OA 4687   5.396   4.990   5.640
   27POPC     P 4688   5.463   4.856   5.600
   27POPC    OB 4689   5.348   4.768   5.602
   27POPC    OC 4690   5.577   4.827   5.686
   27POPC    OD 4691   5.507   4.882   5.451
   27POPC    CC 4692   5.540   5.006   5.395
   27POPC    CD 4693   5.424   5.081   5.333
   27POPC    OE 4694   5.387   5.014   5.214
   27POPC   C1A 4695   5.266   5.045   5.168
   27POPC    OF 4696   5.182   5.118   5.221
   27POPC   C1B 4697   5.245   4.956   5.047
   27POPC   C1C 4698   5.117   4.983   4.961
   27POPC   C1D 4699   5.142   5.106   4.872
   27POPC   C1E 4700   5.045   5.121   4.757
   27POPC   C1F 4701   5.053   5.258   4.686
   27POPC   C1G 4702   4.968   5.243   4.556
   27POPC   C1H 4703   5.000   5.361   4.461
   27POPC   C1I 4704   4.892   5.345   4.353
   27POPC   C1J 4705   4.914   5.330   4.225
   27POPC   C1K 4706   5.040   5.314   4.151
   27POPC   C1L 4707   5.042   5.336   3.995
   27POPC   C1M 4708   5.023   5.487   3.973
   27POPC   C1N 4709   5.047   5.538   3.829
   27POPC   C1O 4710   4.991   5.451   3.711
   27POPC   C1P 4711   4.999   5.512   3.579
   27POPC   C1Q 4712   5.141   5.508   3.516
   27POPC   C1R 4713   5.147   5.596   3.385
   27POPC    CE 4714   5.452   5.227   5.316
   27POPC    OG 4715   5.562   5.251   5.227
   27POPC   C2A 4716   5.537   5.295   5.107
   27POPC    OH 4717   5.427   5.333   5.065
   27POPC   C2B 4718   5.662   5.298   5.024
   27POPC   C2C 4719   5.626   5.274   4.875
   27POPC   C2D 4720   5.745   5.254   4.786
   27POPC   C2E 4721   5.715   5.234   4.630
   27POPC   C2F 4722   5.836   5.218   4.536
   27POPC   C2G 4723   5.794   5.202   4.385
   27POPC   C2H 4724   5.914   5.167   4.297
   27POPC   C2I 4725   5.866   5.152   4.148
   27POPC   C2J 4726   5.976   5.093   4.059
   27POPC   C2K 4727   5.908   5.062   3.926
   27POPC   C2L 4728   6.010   5.016   3.821
   27POPC   C2M 4729   5.946   4.933   3.709
   27POPC   C2N 4730   6.042   4.923   3.593
   27POPC   C2O 4731   5.988   4.836   3.480
   27POPC   C2P 4732   6.090   4.819   3.367
   28POPC   CN1 4733   1.479   2.443   5.730
   28POPC   CN2 4734   1.503   2.251   5.586
   28POPC   CN3 4735   1.457   2.230   5.834
   28POPC   NTM 4736   1.533   2.306   5.725
   28POPC    CA 4737   1.687   2.307   5.763
   28POPC    CB 4738   1.742   2.160   5.765
   28POPC    OA 4739   1.724   2.103   5.634
   28POPC     P 4740   1.791   1.967   5.600
   28POPC    OB 4741   1.675   1.880   5.598
   28POPC    OC 4742   1.901   1.938   5.692
   28POPC    OD 4743   1.842   1.990   5.453
   28POPC    CC 4744   1.880   2.112   5.396
   28POPC    CD 4745   1.768   2.188   5.327
   28POPC    OE 4746   1.735   2.118   5.208
   28POPC   C1A 4747   1.617   2.150   5.155
   28POPC    OF 4748   1.531   2.224   5.203
   28POPC   C1B 4749   1.601   2.059   5.035
   28POPC   C1C 4750   1.477   2.085   4.943
   28POPC   C1D 4751   1.508   2.206   4.853
   28POPC   C1E 4752   1.416   2.220   4.734
   28POPC   C1F 4753   1.429   2.356   4.661
   28POPC   C1G 4754   1.350   2.340   4.527
   28POPC   C1H 4755   1.388   2.456   4.432
   28POPC   C1I 4756   1.285   2.438   4.319
   28POPC   C1J 4757   1.312   2.421   4.192
   28POPC   C1K 4758   1.441   2.402   4.125
   28POPC   C1L 4759   1.451   2.422   3.969
   28POPC   C1M 4760   1.435   2.572   3.943
   28POPC   C1N 4761   1.466   2.620   3.799
   28POPC   C1O 4762   1.415   2.532   3.680
   28POPC   C1P 4763   1.430   2.590   3.547
   28POPC   C1Q 4764   1.574   2.584   3.492
   28POPC   C1R 4765   1.588   2.669   3.359
   28POPC    CE 4766   1.797   2.332   5.309
   28POPC    OG 4767   1.912   2.353   5.225
   28POPC   C2A 4768   1.893   2.396   5.103
   28POPC    OH 4769   1.786   2.434   5.055
   28POPC   C2B 4770   2.022   2.396   5.027
   28POPC   C2C 4771   1.992   2.370   4.876
   28POPC   C2D 4772   2.115   2.347   4.793
   28POPC   C2E 4773   2.092   2.325   4.637
   28POPC   C2F 4774   2.218   2.305   4.548
   28POPC   C2G 4775   2.182   2.287   4.396
   28POPC   C2H 4776   2.306   2.249   4.314
   28POPC   C2I 4777   2.265   2.232   4.164
   28POPC   C2J 4778   2.378   2.170   4.081
   28POPC   C2K 4779   2.316   2.138   3.946
   28POPC   C2L 4780   2.422   2.089   3.846
   28POPC   C2M 4781   2.363   2.004   3.733
   28POPC   C2N 4782   2.464   1.992   3.622
   28POPC   C2O 4783   2.415   1.903   3.508
   28POPC   C2P 4784   2.521   1.883   3.400
   29POPC   CN1 4785   0.433   1.047   5.763
   29POPC   CN2 4786   0.578   1.163   5.610
   29POPC   CN3 4787   0.623   1.151   5.859
   29POPC   NTM 4788   0.517   1.167   5.749
   29POPC    CA 4789   0.432   1.297   5.781
   29POPC    CB 4790   0.525   1.423   5.774
   29POPC    OA 4791   0.582   1.432   5.642
   29POPC     P 4792   0.658   1.561   5.600
   29POPC    OB 4793   0.794   1.511   5.600
   29POPC    OC 4794   0.623   1.674   5.686
   29POPC    OD 4795   0.610   1.582   5.452
   29POPC    CC 4796   0.486   1.543   5.398
   29POPC    CD 4797   0.484   1.404   5.337
   29POPC    OE 4798   0.559   1.408   5.218
   29POPC   C1A 4799   0.597   1.289   5.171
   29POPC    OF 4800   0.582   1.179   5.226
   29POPC   C1B 4801   0.680   1.318   5.048
   29POPC   C1C 4802   0.725   1.195   4.963
   29POPC   C1D 4803   0.607   1.149   4.876
   29POPC   C1E 4804   0.644   1.058   4.762
   29POPC   C1F 4805   0.524   0.990   4.694
   29POPC   C1G 4806   0.579   0.925   4.563
   29POPC   C1H 4807   0.460   0.888   4.471
   29POPC   C1I 4808   0.530   0.805   4.362
   29POPC   C1J 4809   0.529   0.830   4.234
   29POPC   C1K 4810   0.473   0.944   4.160
   29POPC   C1L 4811   0.450   0.932   4.005
   29POPC   C1M 4812   0.333   0.835   3.986
   29POPC   C1N 4813   0.275   0.826   3.843
   29POPC   C1O 4814   0.375   0.824   3.723
   29POPC   C1P 4815   0.317   0.798   3.592
   29POPC   C1Q 4816   0.243   0.918   3.529
   29POPC   C1R 4817   0.163   0.875   3.400
   29POPC    CE 4818   0.347   1.349   5.324
   29POPC    OG 4819   0.265   1.428   5.235
   29POPC   C2A 4820   0.239   1.381   5.116
   29POPC    OH 4821   0.266   1.268   5.075
   29POPC   C2B 4822   0.168   1.484   5.034
   29POPC   C2C 4823   0.204   1.465   4.884
   29POPC   C2D 4824   0.155   1.576   4.795
   29POPC   C2E 4825   0.185   1.560   4.639
   29POPC   C2F 4826   0.132   1.670   4.544
   29POPC   C2G 4827   0.165   1.641   4.393
   29POPC   C2H 4828   0.128   1.761   4.304
   29POPC   C2I 4829   0.164   1.727   4.156
   29POPC   C2J 4830   0.152   1.850   4.065
   29POPC   C2K 4831   0.213   1.808   3.932
   29POPC   C2L 4832   0.194   1.918   3.826
   29POPC   C2M 4833   0.297   1.908   3.712
   29POPC   C2N 4834   0.251   1.993   3.597
   29POPC   C2O 4835   0.351   1.994   3.481
   29POPC   C2P 4836   0.308   2.087   3.368
   30POPC   CN1 4837   2.202   4.807   5.750
   30POPC   CN2 4838   2.289   4.622   5.622
   30POPC   CN3 4839   2.296   4.628   5.874
   30POPC   NTM 4840   2.312   4.708   5.745
   30POPC    CA 4841   2.452   4.781   5.749
   30POPC    CB 4842   2.567   4.675   5.752
   30POPC    OA 4843   2.558   4.593   5.635
   30POPC     P 4844   2.674   4.495   5.599
   30POPC    OB 4845   2.611   4.369   5.630
   30POPC    OC 4846   2.797   4.533   5.667
   30POPC    OD 4847   2.685   4.511   5.443
   30POPC    CC 4848   2.654   4.626   5.369
   30POPC    CD 4849   2.511   4.632   5.319
   30POPC    OE 4850   2.496   4.536   5.217
   30POPC   C1A 4851   2.370   4.504   5.188
   30POPC    OF 4852   2.268   4.542   5.246
   30POPC   C1B 4853   2.378   4.395   5.083
   30POPC   C1C 4854   2.244   4.349   5.018
   30POPC   C1D 4855   2.202   4.453   4.912
   30POPC   C1E 4856   2.097   4.405   4.815
   30POPC   C1F 4857   2.035   4.517   4.729
   30POPC   C1G 4858   1.953   4.446   4.617
   30POPC   C1H 4859   1.919   4.548   4.506
   30POPC   C1I 4860   1.820   4.468   4.420
   30POPC   C1J 4861   1.833   4.442   4.292
   30POPC   C1K 4862   1.944   4.469   4.201
   30POPC   C1L 4863   1.920   4.462   4.045
   30POPC   C1M 4864   1.834   4.584   4.010
   30POPC   C1N 4865   1.817   4.614   3.859
   30POPC   C1O 4866   1.794   4.493   3.763
   30POPC   C1P 4867   1.761   4.527   3.625
   30POPC   C1Q 4868   1.882   4.573   3.540
   30POPC   C1R 4869   1.835   4.631   3.401
   30POPC    CE 4870   2.468   4.770   5.282
   30POPC    OG 4871   2.547   4.823   5.173
   30POPC   C2A 4872   2.492   4.831   5.055
   30POPC    OH 4873   2.373   4.810   5.028
   30POPC   C2B 4874   2.593   4.872   4.953
   30POPC   C2C 4875   2.556   4.810   4.815
   30POPC   C2D 4876   2.663   4.827   4.710
   30POPC   C2E 4877   2.628   4.769   4.565
   30POPC   C2F 4878   2.734   4.790   4.454
   30POPC   C2G 4879   2.688   4.732   4.315
   30POPC   C2H 4880   2.802   4.736   4.212
   30POPC   C2I 4881   2.751   4.677   4.077
   30POPC   C2J 4882   2.865   4.656   3.977
   30POPC   C2K 4883   2.805   4.576   3.862
   30POPC   C2L 4884   2.905   4.561   3.747
   30POPC   C2M 4885   2.874   4.440   3.657
   30POPC   C2N 4886   2.952   4.452   3.529
   30POPC   C2O 4887   2.932   4.332   3.436
   30POPC   C2P 4888   3.018   4.341   3.311
   31POPC   CN1 4889   3.071   1.392   5.765
   31POPC   CN2 4890   3.221   1.267   5.623
   31POPC   CN3 4891   3.227   1.252   5.875
   31POPC   NTM 4892   3.210   1.344   5.754
   31POPC    CA 4893   3.311   1.465   5.769
   31POPC    CB 4894   3.458   1.411   5.766
   31POPC    OA 4895   3.480   1.344   5.641
   31POPC     P 4896   3.624   1.302   5.600
   31POPC    OB 4897   3.615   1.158   5.618
   31POPC    OC 4898   3.724   1.378   5.675
   31POPC    OD 4899   3.627   1.336   5.446
   31POPC    CC 4900   3.553   1.436   5.381
   31POPC    CD 4901   3.419   1.391   5.329
   31POPC    OE 4902   3.441   1.306   5.218
   31POPC   C1A 4903   3.337   1.231   5.183
   31POPC    OF 4904   3.229   1.221   5.241
   31POPC   C1B 4905   3.386   1.144   5.069
   31POPC   C1C 4906   3.280   1.056   4.996
   31POPC   C1D 4907   3.200   1.146   4.899
   31POPC   C1E 4908   3.120   1.070   4.795
   31POPC   C1F 4909   3.019   1.158   4.718
   31POPC   C1G 4910   2.970   1.071   4.597
   31POPC   C1H 4911   2.899   1.162   4.495
   31POPC   C1I 4912   2.837   1.058   4.400
   31POPC   C1J 4913   2.858   1.051   4.271
   31POPC   C1K 4914   2.949   1.127   4.185
   31POPC   C1L 4915   2.928   1.126   4.029
   31POPC   C1M 4916   2.801   1.208   4.002
   31POPC   C1N 4917   2.773   1.243   3.855
   31POPC   C1O 4918   2.797   1.132   3.747
   31POPC   C1P 4919   2.753   1.164   3.612
   31POPC   C1Q 4920   2.845   1.261   3.535
   31POPC   C1R 4921   2.779   1.309   3.400
   31POPC    CE 4922   3.326   1.504   5.303
   31POPC    OG 4923   3.377   1.594   5.202
   31POPC   C2A 4924   3.322   1.591   5.083
   31POPC    OH 4925   3.220   1.528   5.051
   31POPC   C2B 4926   3.398   1.678   4.988
   31POPC   C2C 4927   3.388   1.619   4.844
   31POPC   C2D 4928   3.478   1.685   4.744
   31POPC   C2E 4929   3.467   1.633   4.594
   31POPC   C2F 4930   3.556   1.703   4.488
   31POPC   C2G 4931   3.534   1.645   4.343
   31POPC   C2H 4932   3.636   1.703   4.244
   31POPC   C2I 4933   3.611   1.641   4.103
   31POPC   C2J 4934   3.724   1.675   4.005
   31POPC   C2K 4935   3.698   1.590   3.882
   31POPC   C2L 4936   3.796   1.625   3.768
   31POPC   C2M 4937   3.813   1.510   3.668
   31POPC   C2N 4938   3.879   1.564   3.543
   31POPC   C2O 4939   3.906   1.455   3.439
   31POPC   C2P 4940   3.980   1.508   3.317
   32POPC   CN1 4941   1.124   3.121   5.750
   32POPC   CN2 4942   1.327   3.142   5.621
   32POPC   CN3 4943   1.325   3.149   5.874
   32POPC   NTM 4944   1.254   3.191   5.745
   32POPC    CA 4945   1.232   3.348   5.751
   32POPC    CB 4946   1.371   3.421   5.754
   32POPC    OA 4947   1.444   3.386   5.635
   32POPC     P 4948   1.575   3.463   5.600
   32POPC    OB 4949   1.673   3.361   5.629
   32POPC    OC 4950   1.581   3.591   5.669
   32POPC    OD 4951   1.563   3.480   5.444
   32POPC    CC 4952   1.444   3.490   5.370
   32POPC    CD 4953   1.390   3.358   5.320
   32POPC    OE 4954   1.475   3.312   5.217
   32POPC   C1A 4955   1.463   3.183   5.187
   32POPC    OF 4956   1.393   3.099   5.245
   32POPC   C1B 4957   1.567   3.155   5.081
   32POPC   C1C 4958   1.566   3.014   5.014
   32POPC   C1D 4959   1.453   3.011   4.910
   32POPC   C1E 4960   1.462   2.896   4.811
   32POPC   C1F 4961   1.335   2.876   4.726
   32POPC   C1G 4962   1.375   2.776   4.612
   32POPC   C1H 4963   1.266   2.780   4.502
   32POPC   C1I 4964   1.308   2.660   4.415
   32POPC   C1J 4965   1.336   2.664   4.287
   32POPC   C1K 4966   1.348   2.779   4.197
   32POPC   C1L 4967   1.345   2.755   4.041
   32POPC   C1M 4968   1.201   2.715   4.006
   32POPC   C1N 4969   1.166   2.711   3.855
   32POPC   C1O 4970   1.272   2.649   3.758
   32POPC   C1P 4971   1.228   2.631   3.620
   32POPC   C1Q 4972   1.225   2.762   3.536
   32POPC   C1R 4973   1.154   2.738   3.397
   32POPC    CE 4974   1.246   3.364   5.283
   32POPC    OG 4975   1.221   3.457   5.176
   32POPC   C2A 4976   1.195   3.408   5.057
   32POPC    OH 4977   1.174   3.290   5.030
   32POPC   C2B 4978   1.189   3.519   4.956
   32POPC   C2C 4979   1.235   3.464   4.818
   32POPC   C2D 4980   1.253   3.571   4.714
   32POPC   C2E 4981   1.296   3.521   4.568
   32POPC   C2F 4982   1.311   3.629   4.457
   32POPC   C2G 4983   1.349   3.567   4.318
   32POPC   C2H 4984   1.382   3.676   4.216
   32POPC   C2I 4985   1.421   3.610   4.080
   32POPC   C2J 4986   1.478   3.712   3.980
   32POPC   C2K 4987   1.533   3.629   3.865
   32POPC   C2L 4988   1.580   3.720   3.750
   32POPC   C2M 4989   1.683   3.651   3.659
   32POPC   C2N 4990   1.697   3.730   3.531
   32POPC   C2O 4991   1.803   3.671   3.438
   32POPC   C2P 4992   1.822   3.756   3.312
   33POPC   CN1 4993   4.621   2.537   5.744
   33POPC   CN2 4994   4.727   2.703   5.604
   33POPC   CN3 4995   4.763   2.691   5.854
   33POPC   NTM 4996   4.662   2.679   5.740
   33POPC    CA 4997   4.539   2.773   5.773
   33POPC    CB 4998   4.586   2.922   5.777
   33POPC    OA 4999   4.642   2.956   5.649
   33POPC     P 5000   4.674   3.105   5.616
   33POPC    OB 5001   4.819   3.102   5.621
   33POPC    OC 5002   4.601   3.195   5.705
   33POPC    OD 5003   4.627   3.118   5.467
   33POPC    CC 5004   4.524   3.045   5.405
   33POPC    CD 5005   4.569   2.917   5.338
   33POPC    OE 5006   4.643   2.951   5.223
   33POPC   C1A 5007   4.719   2.854   5.173
   33POPC    OF 5008   4.738   2.742   5.222
   33POPC   C1B 5009   4.793   2.915   5.056
   33POPC   C1C 5010   4.878   2.819   4.968
   33POPC   C1D 5011   4.784   2.742   4.873
   33POPC   C1E 5012   4.854   2.674   4.757
   33POPC   C1F 5013   4.764   2.575   4.680
   33POPC   C1G 5014   4.841   2.540   4.549
   33POPC   C1H 5015   4.745   2.472   4.449
   33POPC   C1I 5016   4.842   2.422   4.341
   33POPC   C1J 5017   4.837   2.453   4.214
   33POPC   C1K 5018   4.750   2.547   4.143
   33POPC   C1L 5019   4.738   2.538   3.986
   33POPC   C1M 5020   4.659   2.409   3.956
   33POPC   C1N 5021   4.612   2.391   3.810
   33POPC   C1O 5022   4.712   2.428   3.696
   33POPC   C1P 5023   4.670   2.392   3.561
   33POPC   C1Q 5024   4.563   2.486   3.500
   33POPC   C1R 5025   4.506   2.428   3.365
   33POPC    CE 5026   4.458   2.821   5.314
   33POPC    OG 5027   4.358   2.875   5.226
   33POPC   C2A 5028   4.353   2.829   5.103
   33POPC    OH 5029   4.416   2.734   5.059
   33POPC   C2B 5030   4.255   2.909   5.022
   33POPC   C2C 5031   4.301   2.911   4.873
   33POPC   C2D 5032   4.222   3.006   4.787
   33POPC   C2E 5033   4.262   3.009   4.633
   33POPC   C2F 5034   4.179   3.102   4.540
   33POPC   C2G 5035   4.225   3.094   4.390
   33POPC   C2H 5036   4.155   3.200   4.304
   33POPC   C2I 5037   4.205   3.189   4.157
   33POPC   C2J 5038   4.157   3.307   4.071
   33POPC   C2K 5039   4.233   3.294   3.940
   33POPC   C2L 5040   4.184   3.398   3.837
   33POPC   C2M 5041   4.288   3.428   3.729
   33POPC   C2N 5042   4.221   3.501   3.615
   33POPC   C2O 5043   4.320   3.541   3.505
   33POPC   C2P 5044   4.253   3.622   3.394
   34POPC   CN1 5045   5.192   3.448   5.720
   34POPC   CN2 5046   5.033   3.304   5.610
   34POPC   CN3 5047   5.064   3.306   5.861
   34POPC   NTM 5048   5.133   3.313   5.725
   34POPC    CA 5049   5.247   3.204   5.722
   34POPC    CB 5050   5.183   3.061   5.735
   34POPC    OA 5051   5.093   3.040   5.626
   34POPC     P 5052   5.034   2.898   5.600
   34POPC    OB 5053   4.897   2.919   5.643
   34POPC    OC 5054   5.115   2.796   5.664
   34POPC    OD 5055   5.039   2.888   5.443
   34POPC    CC 5056   5.130   2.951   5.358
   34POPC    CD 5057   5.086   3.088   5.308
   34POPC    OE 5058   4.981   3.068   5.216
   34POPC   C1A 5059   4.908   3.177   5.190
   34POPC    OF 5060   4.917   3.287   5.244
   34POPC   C1B 5061   4.799   3.131   5.096
   34POPC   C1C 5062   4.707   3.241   5.035
   34POPC   C1D 5063   4.782   3.311   4.920
   34POPC   C1E 5064   4.694   3.393   4.828
   34POPC   C1F 5065   4.773   3.484   4.732
   34POPC   C1G 5066   4.669   3.536   4.627
   34POPC   C1H 5067   4.745   3.597   4.506
   34POPC   C1I 5068   4.630   3.663   4.429
   34POPC   C1J 5069   4.598   3.639   4.304
   34POPC   C1K 5070   4.651   3.539   4.211
   34POPC   C1L 5071   4.622   3.556   4.056
   34POPC   C1M 5072   4.707   3.675   4.010
   34POPC   C1N 5073   4.716   3.696   3.857
   34POPC   C1O 5074   4.586   3.676   3.772
   34POPC   C1P 5075   4.595   3.714   3.632
   34POPC   C1Q 5076   4.670   3.611   3.543
   34POPC   C1R 5077   4.697   3.670   3.399
   34POPC    CE 5078   5.199   3.170   5.258
   34POPC    OG 5079   5.265   3.109   5.145
   34POPC   C2A 5080   5.244   3.161   5.026
   34POPC    OH 5081   5.184   3.266   5.002
   34POPC   C2B 5082   5.306   3.075   4.921
   34POPC   C2C 5083   5.223   3.086   4.789
   34POPC   C2D 5084   5.264   2.987   4.683
   34POPC   C2E 5085   5.185   2.997   4.545
   34POPC   C2F 5086   5.228   2.900   4.431
   34POPC   C2G 5087   5.146   2.921   4.299
   34POPC   C2H 5088   5.177   2.812   4.196
   34POPC   C2I 5089   5.093   2.837   4.067
   34POPC   C2J 5090   5.101   2.719   3.970
   34POPC   C2K 5091   4.996   2.747   3.863
   34POPC   C2L 5092   5.003   2.644   3.750
   34POPC   C2M 5093   4.871   2.633   3.672
   34POPC   C2N 5094   4.896   2.558   3.543
   34POPC   C2O 5095   4.768   2.537   3.462
   34POPC   C2P 5096   4.792   2.454   3.336
   35POPC   CN1 5097   3.843   2.546   5.672
   35POPC   CN2 5098   3.645   2.654   5.587
   35POPC   CN3 5099   3.680   2.608   5.833
   35POPC   NTM 5100   3.697   2.555   5.690
   35POPC    CA 5101   3.632   2.411   5.683
   35POPC    CB 5102   3.478   2.421   5.710
   35POPC    OA 5103   3.419   2.507   5.612
   35POPC     P 5104   3.264   2.516   5.600
   35POPC    OB 5105   3.241   2.648   5.654
   35POPC    OC 5106   3.200   2.401   5.662
   35POPC    OD 5107   3.242   2.519   5.444
   35POPC    CC 5108   3.325   2.461   5.347
   35POPC    CD 5109   3.433   2.552   5.293
   35POPC    OE 5110   3.372   2.651   5.213
   35POPC   C1A 5111   3.447   2.758   5.188
   35POPC    OF 5112   3.559   2.783   5.235
   35POPC   C1B 5113   3.360   2.852   5.108
   35POPC   C1C 5114   3.428   2.980   5.050
   35POPC   C1D 5115   3.508   2.941   4.925
   35POPC   C1E 5116   3.548   3.057   4.837
   35POPC   C1F 5117   3.651   3.021   4.728
   35POPC   C1G 5118   3.656   3.144   4.631
   35POPC   C1H 5119   3.728   3.102   4.500
   35POPC   C1I 5120   3.746   3.238   4.430
   35POPC   C1J 5121   3.701   3.269   4.311
   35POPC   C1K 5122   3.617   3.192   4.219
   35POPC   C1L 5123   3.609   3.235   4.067
   35POPC   C1M 5124   3.745   3.199   4.006
   35POPC   C1N 5125   3.754   3.208   3.852
   35POPC   C1O 5126   3.685   3.330   3.781
   35POPC   C1P 5127   3.712   3.344   3.639
   35POPC   C1Q 5128   3.632   3.246   3.549
   35POPC   C1R 5129   3.684   3.251   3.400
   35POPC    CE 5130   3.544   2.478   5.228
   35POPC    OG 5131   3.499   2.404   5.113
   35POPC   C2A 5132   3.529   2.449   4.994
   35POPC    OH 5133   3.606   2.543   4.970
   35POPC   C2B 5134   3.460   2.369   4.888
   35POPC   C2C 5135   3.431   2.461   4.765
   35POPC   C2D 5136   3.343   2.397   4.662
   35POPC   C2E 5137   3.314   2.483   4.531
   35POPC   C2F 5138   3.227   2.418   4.420
   35POPC   C2G 5139   3.208   2.512   4.295
   35POPC   C2H 5140   3.107   2.453   4.196
   35POPC   C2I 5141   3.091   2.550   4.075
   35POPC   C2J 5142   2.974   2.510   3.984
   35POPC   C2K 5143   2.957   2.625   3.887
   35POPC   C2L 5144   2.852   2.592   3.779
   35POPC   C2M 5145   2.791   2.717   3.716
   35POPC   C2N 5146   2.718   2.678   3.589
   35POPC   C2O 5147   2.648   2.796   3.523
   35POPC   C2P 5148   2.568   2.755   3.400
   36POPC   CN1 5149   6.108   5.948   5.687
   36POPC   CN2 5150   5.974   6.106   5.564
   36POPC   CN3 5151   6.008   6.122   5.814
   36POPC   NTM 5152   5.985   6.029   5.694
   36POPC    CA 5153   5.861   5.936   5.728
   36POPC    CB 5154   5.732   6.024   5.744
   36POPC    OA 5155   5.709   6.095   5.621
   36POPC     P 5156   5.575   6.171   5.600
   36POPC    OB 5157   5.621   6.308   5.611
   36POPC    OC 5158   5.472   6.121   5.691
   36POPC    OD 5159   5.541   6.139   5.450
   36POPC    CC 5160   5.578   6.024   5.378
   36POPC    CD 5161   5.711   6.035   5.305
   36POPC    OE 5162   5.693   6.123   5.196
   36POPC   C1A 5163   5.806   6.170   5.144
   36POPC    OF 5164   5.921   6.153   5.186
   36POPC   C1B 5165   5.763   6.266   5.035
   36POPC   C1C 5166   5.876   6.326   4.945
   36POPC   C1D 5167   5.917   6.220   4.841
   36POPC   C1E 5168   5.996   6.274   4.724
   36POPC   C1F 5169   6.060   6.165   4.636
   36POPC   C1G 5170   6.111   6.237   4.507
   36POPC   C1H 5171   6.142   6.132   4.398
   36POPC   C1I 5172   6.213   6.217   4.292
   36POPC   C1J 5173   6.175   6.230   4.167
   36POPC   C1K 5174   6.057   6.178   4.098
   36POPC   C1L 5175   6.054   6.174   3.940
   36POPC   C1M 5176   6.152   6.064   3.899
   36POPC   C1N 5177   6.149   6.023   3.750
   36POPC   C1O 5178   6.137   6.137   3.643
   36POPC   C1P 5179   6.152   6.096   3.504
   36POPC   C1Q 5180   6.028   6.024   3.444
   36POPC   C1R 5181   6.061   5.962   3.303
   36POPC    CE 5182   5.768   5.902   5.270
   36POPC    OG 5183   5.683   5.828   5.181
   36POPC   C2A 5184   5.719   5.818   5.055
   36POPC    OH 5185   5.827   5.854   5.008
   36POPC   C2B 5186   5.611   5.753   4.975
   36POPC   C2C 5187   5.614   5.807   4.829
   36POPC   C2D 5188   5.497   5.765   4.746
   36POPC   C2E 5189   5.497   5.813   4.594
   36POPC   C2F 5190   5.380   5.767   4.504
   36POPC   C2G 5191   5.393   5.819   4.356
   36POPC   C2H 5192   5.267   5.788   4.274
   36POPC   C2I 5193   5.285   5.842   4.129
   36POPC   C2J 5194   5.154   5.836   4.049
   36POPC   C2K 5195   5.182   5.913   3.921
   36POPC   C2L 5196   5.063   5.903   3.823
   36POPC   C2M 5197   5.060   6.018   3.723
   36POPC   C2N 5198   4.965   5.983   3.610
   36POPC   C2O 5199   4.950   6.095   3.508
   36POPC   C2P 5200   4.848   6.063   3.400
   37POPC   CN1 5201   0.918   5.481   5.756
   37POPC   CN2 5202   1.007   5.307   5.615
   37POPC   CN3 5203   1.001   5.289   5.867
   37POPC   NTM 5204   1.025   5.380   5.747
   37POPC    CA 5205   1.167   5.449   5.766
   37POPC    CB 5206   1.279   5.340   5.764
   37POPC    OA 5207   1.274   5.270   5.639
   37POPC     P 5208   1.390   5.173   5.600
   37POPC    OB 5209   1.322   5.046   5.615
   37POPC    OC 5210   1.510   5.201   5.678
   37POPC    OD 5211   1.410   5.204   5.447
   37POPC    CC 5212   1.385   5.326   5.382
   37POPC    CD 5213   1.245   5.341   5.326
   37POPC    OE 5214   1.233   5.255   5.215
   37POPC   C1A 5215   1.108   5.229   5.177
   37POPC    OF 5216   1.004   5.264   5.233
   37POPC   C1B 5217   1.120   5.130   5.062
   37POPC   C1C 5218   0.988   5.095   4.986
   37POPC   C1D 5219   0.954   5.209   4.890
   37POPC   C1E 5220   0.853   5.174   4.783
   37POPC   C1F 5221   0.799   5.295   4.705
   37POPC   C1G 5222   0.721   5.237   4.583
   37POPC   C1H 5223   0.695   5.350   4.480
   37POPC   C1I 5224   0.599   5.281   4.382
   37POPC   C1J 5225   0.617   5.267   4.253
   37POPC   C1K 5226   0.734   5.299   4.171
   37POPC   C1L 5227   0.718   5.308   4.014
   37POPC   C1M 5228   0.636   5.435   3.987
   37POPC   C1N 5229   0.628   5.480   3.839
   37POPC   C1O 5230   0.608   5.369   3.730
   37POPC   C1P 5231   0.583   5.417   3.595
   37POPC   C1Q 5232   0.709   5.468   3.521
   37POPC   C1R 5233   0.671   5.540   3.386
   37POPC    CE 5234   1.207   5.482   5.301
   37POPC    OG 5235   1.293   5.543   5.202
   37POPC   C2A 5236   1.244   5.564   5.082
   37POPC    OH 5237   1.127   5.549   5.048
   37POPC   C2B 5238   1.351   5.612   4.990
   37POPC   C2C 5239   1.320   5.564   4.845
   37POPC   C2D 5240   1.432   5.588   4.748
   37POPC   C2E 5241   1.405   5.546   4.596
   37POPC   C2F 5242   1.516   5.574   4.493
   37POPC   C2G 5243   1.476   5.531   4.347
   37POPC   C2H 5244   1.595   5.542   4.251
   37POPC   C2I 5245   1.550   5.497   4.108
   37POPC   C2J 5246   1.669   5.483   4.013
   37POPC   C2K 5247   1.613   5.416   3.888
   37POPC   C2L 5248   1.719   5.409   3.776
   37POPC   C2M 5249   1.690   5.298   3.674
   37POPC   C2N 5250   1.776   5.321   3.552
   37POPC   C2O 5251   1.757   5.211   3.447
   37POPC   C2P 5252   1.850   5.229   3.327
   38POPC   CN1 5253   3.104   5.908   5.722
   38POPC   CN2 5254   2.923   6.006   5.597
   38POPC   CN3 5255   2.932   6.010   5.850
   38POPC   NTM 5256   2.958   5.928   5.723
   38POPC    CA 5257   2.884   5.789   5.739
   38POPC    CB 5258   2.729   5.813   5.748
   38POPC    OA 5259   2.685   5.879   5.628
   38POPC     P 5260   2.533   5.894   5.599
   38POPC    OB 5261   2.515   6.035   5.623
   38POPC    OC 5262   2.456   5.797   5.676
   38POPC    OD 5263   2.525   5.866   5.445
   38POPC    CC 5264   2.612   5.785   5.370
   38POPC    CD 5265   2.731   5.857   5.311
   38POPC    OE 5266   2.685   5.940   5.206
   38POPC   C1A 5267   2.769   6.035   5.168
   38POPC    OF 5268   2.878   6.064   5.220
   38POPC   C1B 5269   2.696   6.115   5.062
   38POPC   C1C 5270   2.778   6.224   4.987
   38POPC   C1D 5271   2.866   6.156   4.881
   38POPC   C1E 5272   2.921   6.250   4.776
   38POPC   C1F 5273   3.031   6.187   4.688
   38POPC   C1G 5274   3.053   6.286   4.569
   38POPC   C1H 5275   3.134   6.215   4.458
   38POPC   C1I 5276   3.167   6.332   4.364
   38POPC   C1J 5277   3.135   6.340   4.237
   38POPC   C1K 5278   3.054   6.251   4.154
   38POPC   C1L 5279   3.063   6.262   3.997
   38POPC   C1M 5280   3.201   6.207   3.958
   38POPC   C1N 5281   3.225   6.184   3.807
   38POPC   C1O 5282   3.171   6.292   3.707
   38POPC   C1P 5283   3.211   6.275   3.568
   38POPC   C1Q 5284   3.133   6.164   3.492
   38POPC   C1R 5285   3.198   6.135   3.351
   38POPC    CE 5286   2.842   5.765   5.273
   38POPC    OG 5287   2.802   5.671   5.171
   38POPC   C2A 5288   2.846   5.689   5.049
   38POPC    OH 5289   2.931   5.772   5.014
   38POPC   C2B 5290   2.781   5.593   4.955
   38POPC   C2C 5291   2.769   5.658   4.814
   38POPC   C2D 5292   2.686   5.579   4.717
   38POPC   C2E 5293   2.675   5.638   4.569
   38POPC   C2F 5294   2.595   5.556   4.466
   38POPC   C2G 5295   2.593   5.622   4.323
   38POPC   C2H 5296   2.497   5.550   4.228
   38POPC   C2I 5297   2.499   5.621   4.089
   38POPC   C2J 5298   2.388   5.568   3.997
   38POPC   C2K 5299   2.388   5.662   3.877
   38POPC   C2L 5300   2.291   5.613   3.768
   38POPC   C2M 5301   2.245   5.725   3.675
   38POPC   C2N 5302   2.181   5.664   3.552
   38POPC   C2O 5303   2.126   5.770   3.457
   38POPC   C2P 5304   2.054   5.708   3.337
   39POPC   CN1 5305   4.696   5.374   5.677
   39POPC   CN2 5306   4.477   5.391   5.576
   39POPC   CN3 5307   4.513   5.396   5.827
   39POPC   NTM 5308   4.555   5.333   5.694
   39POPC    CA 5309   4.544   5.176   5.708
   39POPC    CB 5310   4.395   5.135   5.734
   39POPC    OA 5311   4.315   5.180   5.623
   39POPC     P 5312   4.168   5.131   5.610
   39POPC    OB 5313   4.098   5.253   5.644
   39POPC    OC 5314   4.145   5.011   5.689
   39POPC    OD 5315   4.154   5.104   5.456
   39POPC    CC 5316   4.257   5.066   5.369
   39POPC    CD 5317   4.330   5.181   5.302
   39POPC    OE 5318   4.243   5.239   5.207
   39POPC   C1A 5319   4.277   5.361   5.167
   39POPC    OF 5320   4.370   5.430   5.209
   39POPC   C1B 5321   4.167   5.405   5.073
   39POPC   C1C 5322   4.189   5.539   4.996
   39POPC   C1D 5323   4.285   5.514   4.878
   39POPC   C1E 5324   4.286   5.623   4.774
   39POPC   C1F 5325   4.401   5.610   4.672
   39POPC   C1G 5326   4.368   5.711   4.557
   39POPC   C1H 5327   4.457   5.680   4.434
   39POPC   C1I 5328   4.430   5.801   4.345
   39POPC   C1J 5329   4.384   5.797   4.222
   39POPC   C1K 5330   4.337   5.683   4.142
   39POPC   C1L 5331   4.323   5.699   3.986
   39POPC   C1M 5332   4.466   5.705   3.931
   39POPC   C1N 5333   4.480   5.695   3.777
   39POPC   C1O 5334   4.377   5.773   3.689
   39POPC   C1P 5335   4.404   5.775   3.546
   39POPC   C1Q 5336   4.369   5.643   3.472
   39POPC   C1R 5337   4.423   5.644   3.324
   39POPC    CE 5338   4.463   5.141   5.249
   39POPC    OG 5339   4.453   5.041   5.146
   39POPC   C2A 5340   4.472   5.077   5.022
   39POPC    OH 5341   4.513   5.186   4.983
   39POPC   C2B 5342   4.441   4.963   4.930
   39POPC   C2C 5343   4.389   5.020   4.794
   39POPC   C2D 5344   4.334   4.914   4.702
   39POPC   C2E 5345   4.284   4.966   4.559
   39POPC   C2F 5346   4.232   4.859   4.459
   39POPC   C2G 5347   4.188   4.921   4.322
   39POPC   C2H 5348   4.119   4.817   4.233
   39POPC   C2I 5349   4.077   4.884   4.098
   39POPC   C2J 5350   3.987   4.792   4.015
   39POPC   C2K 5351   3.935   4.879   3.901
   39POPC   C2L 5352   3.855   4.795   3.800
   39POPC   C2M 5353   3.757   4.881   3.718
   39POPC   C2N 5354   3.710   4.801   3.599
   39POPC   C2O 5355   3.606   4.876   3.515
   39POPC   C2P 5356   3.552   4.792   3.400
   40POPC   CN1 5357   4.227   1.514   5.713
   40POPC   CN2 5358   4.348   1.334   5.607
   40POPC   CN3 5359   4.348   1.370   5.858
   40POPC   NTM 5360   4.352   1.437   5.720
   40POPC    CA 5361   4.477   1.534   5.715
   40POPC    CB 5362   4.609   1.452   5.731
   40POPC    OA 5363   4.617   1.357   5.624
   40POPC     P 5364   4.750   1.279   5.600
   40POPC    OB 5365   4.710   1.147   5.645
   40POPC    OC 5366   4.863   1.346   5.663
   40POPC    OD 5367   4.762   1.279   5.443
   40POPC    CC 5368   4.712   1.376   5.356
   40POPC    CD 5369   4.571   1.351   5.305
   40POPC    OE 5370   4.576   1.242   5.215
   40POPC   C1A 5371   4.459   1.184   5.190
   40POPC    OF 5372   4.350   1.209   5.244
   40POPC   C1B 5373   4.490   1.068   5.098
   40POPC   C1C 5374   4.368   0.991   5.039
   40POPC   C1D 5375   4.310   1.073   4.922
   40POPC   C1E 5376   4.217   0.995   4.831
   40POPC   C1F 5377   4.138   1.084   4.732
   40POPC   C1G 5378   4.073   0.986   4.629
   40POPC   C1H 5379   4.024   1.067   4.507
   40POPC   C1I 5380   3.942   0.961   4.431
   40POPC   C1J 5381   3.963   0.923   4.307
   40POPC   C1K 5382   4.069   0.959   4.213
   40POPC   C1L 5383   4.050   0.930   4.060
   40POPC   C1M 5384   3.944   1.030   4.010
   40POPC   C1N 5385   3.925   1.039   3.857
   40POPC   C1O 5386   3.927   0.906   3.775
   40POPC   C1P 5387   3.891   0.917   3.634
   40POPC   C1Q 5388   4.004   0.975   3.545
   40POPC   C1R 5389   3.951   1.007   3.400
   40POPC    CE 5390   4.505   1.473   5.252
   40POPC    OG 5391   4.575   1.527   5.139
   40POPC   C2A 5392   4.522   1.511   5.020
   40POPC    OH 5393   4.410   1.466   4.996
   40POPC   C2B 5394   4.617   1.558   4.914
   40POPC   C2C 5395   4.595   1.475   4.784
   40POPC   C2D 5396   4.699   1.499   4.678
   40POPC   C2E 5397   4.679   1.420   4.541
   40POPC   C2F 5398   4.781   1.447   4.428
   40POPC   C2G 5399   4.750   1.366   4.297
   40POPC   C2H 5400   4.863   1.380   4.194
   40POPC   C2I 5401   4.827   1.296   4.067
   40POPC   C2J 5402   4.946   1.286   3.970
   40POPC   C2K 5403   4.903   1.184   3.865
   40POPC   C2L 5404   5.007   1.174   3.753
   40POPC   C2M 5405   5.001   1.040   3.678
   40POPC   C2N 5406   5.078   1.052   3.549
   40POPC   C2O 5407   5.082   0.920   3.471
   40POPC   C2P 5408   5.168   0.930   3.345
   41POPC   CN1 5409   3.734   0.342   5.752
   41POPC   CN2 5410   3.888   0.236   5.598
   41POPC   CN3 5411   3.881   0.180   5.845
   41POPC   NTM 5412   3.872   0.290   5.740
   41POPC    CA 5413   3.976   0.404   5.779
   41POPC    CB 5414   4.121   0.346   5.773
   41POPC    OA 5415   4.148   0.299   5.640
   41POPC     P 5416   4.293   0.259   5.600
   41POPC    OB 5417   4.279   0.115   5.594
   41POPC    OC 5418   4.390   0.318   5.691
   41POPC    OD 5419   4.304   0.317   5.454
   41POPC    CC 5420   4.237   0.429   5.403
   41POPC    CD 5421   4.104   0.398   5.338
   41POPC    OE 5422   4.129   0.332   5.216
   41POPC   C1A 5423   4.025   0.267   5.164
   41POPC    OF 5424   3.914   0.252   5.215
   41POPC   C1B 5425   4.077   0.198   5.040
   41POPC   C1C 5426   3.972   0.127   4.949
   41POPC   C1D 5427   3.900   0.234   4.864
   41POPC   C1E 5428   3.824   0.179   4.746
   41POPC   C1F 5429   3.729   0.281   4.679
   41POPC   C1G 5430   3.684   0.217   4.544
   41POPC   C1H 5431   3.621   0.326   4.455
   41POPC   C1I 5432   3.561   0.241   4.341
   41POPC   C1J 5433   3.588   0.254   4.214
   41POPC   C1K 5434   3.686   0.340   4.146
   41POPC   C1L 5435   3.672   0.365   3.991
   41POPC   C1M 5436   3.549   0.455   3.973
   41POPC   C1N 5437   3.530   0.514   3.831
   41POPC   C1O 5438   3.557   0.421   3.708
   41POPC   C1P 5439   3.520   0.476   3.578
   41POPC   C1Q 5440   3.619   0.581   3.523
   41POPC   C1R 5441   3.561   0.652   3.394
   41POPC    CE 5442   4.016   0.517   5.326
   41POPC    OG 5443   4.074   0.620   5.244
   41POPC   C2A 5444   4.025   0.638   5.124
   41POPC    OH 5445   3.924   0.586   5.078
   41POPC   C2B 5446   4.109   0.736   5.048
   41POPC   C2C 5447   4.104   0.702   4.896
   41POPC   C2D 5448   4.201   0.780   4.813
   41POPC   C2E 5449   4.197   0.753   4.655
   41POPC   C2F 5450   4.292   0.837   4.566
   41POPC   C2G 5451   4.277   0.803   4.413
   41POPC   C2H 5452   4.385   0.873   4.330
   41POPC   C2I 5453   4.366   0.835   4.179
   41POPC   C2J 5454   4.484   0.881   4.093
   41POPC   C2K 5455   4.462   0.817   3.957
   41POPC   C2L 5456   4.567   0.867   3.855
   41POPC   C2M 5457   4.585   0.770   3.738
   41POPC   C2N 5458   4.659   0.840   3.627
   41POPC   C2O 5459   4.688   0.748   3.508
   41POPC   C2P 5460   4.771   0.817   3.400
   42POPC   CN1 5461   0.940   1.583   5.767
   42POPC   CN2 5462   0.979   1.769   5.617
   42POPC   CN3 5463   1.007   1.787   5.868
   42POPC   NTM 5464   0.924   1.729   5.754
   42POPC    CA 5465   0.772   1.769   5.778
   42POPC    CB 5466   0.757   1.925   5.772
   42POPC    OA 5467   0.801   1.971   5.643
   42POPC     P 5468   0.774   2.118   5.600
   42POPC    OB 5469   0.908   2.172   5.607
   42POPC    OC 5470   0.668   2.178   5.681
   42POPC    OD 5471   0.732   2.103   5.449
   42POPC    CC 5472   0.669   1.992   5.391
   42POPC    CD 5473   0.763   1.888   5.334
   42POPC    OE 5474   0.823   1.942   5.218
   42POPC   C1A 5475   0.933   1.879   5.177
   42POPC    OF 5476   0.992   1.787   5.234
   42POPC   C1B 5477   0.982   1.958   5.057
   42POPC   C1C 5478   1.102   1.897   4.978
   42POPC   C1D 5479   1.049   1.785   4.887
   42POPC   C1E 5480   1.145   1.742   4.777
   42POPC   C1F 5481   1.104   1.612   4.706
   42POPC   C1G 5482   1.195   1.602   4.579
   42POPC   C1H 5483   1.137   1.496   4.483
   42POPC   C1I 5484   1.250   1.482   4.380
   42POPC   C1J 5485   1.240   1.501   4.251
   42POPC   C1K 5486   1.126   1.549   4.172
   42POPC   C1L 5487   1.126   1.527   4.016
   42POPC   C1M 5488   1.104   1.376   3.994
   42POPC   C1N 5489   1.074   1.332   3.849
   42POPC   C1O 5490   1.157   1.399   3.734
   42POPC   C1P 5491   1.139   1.342   3.601
   42POPC   C1Q 5492   1.006   1.383   3.532
   42POPC   C1R 5493   0.983   1.299   3.400
   42POPC    CE 5494   0.699   1.755   5.316
   42POPC    OG 5495   0.590   1.761   5.221
   42POPC   C2A 5496   0.608   1.710   5.102
   42POPC    OH 5497   0.706   1.644   5.066
   42POPC   C2B 5498   0.491   1.740   5.014
   42POPC   C2C 5499   0.539   1.751   4.867
   42POPC   C2D 5500   0.434   1.802   4.772
   42POPC   C2E 5501   0.476   1.811   4.619
   42POPC   C2F 5502   0.367   1.859   4.518
   42POPC   C2G 5503   0.419   1.861   4.370
   42POPC   C2H 5504   0.317   1.926   4.276
   42POPC   C2I 5505   0.374   1.927   4.130
   42POPC   C2J 5506   0.289   2.012   4.036
   42POPC   C2K 5507   0.368   2.022   3.907
   42POPC   C2L 5508   0.288   2.092   3.796
   42POPC   C2M 5509   0.377   2.154   3.688
   42POPC   C2N 5510   0.292   2.188   3.568
   42POPC   C2O 5511   0.372   2.257   3.457
   42POPC   C2P 5512   0.285   2.299   3.340
   43POPC   CN1 5513   0.386   2.365   5.736
   43POPC   CN2 5514   0.272   2.195   5.606
   43POPC   CN3 5515   0.261   2.204   5.859
   43POPC   NTM 5516   0.349   2.221   5.735
   43POPC    CA 5517   0.478   2.132   5.754
   43POPC    CB 5518   0.437   1.981   5.761
   43POPC    OA 5519   0.370   1.945   5.639
   43POPC     P 5520   0.340   1.796   5.608
   43POPC    OB 5521   0.197   1.794   5.628
   43POPC    OC 5522   0.426   1.708   5.688
   43POPC    OD 5523   0.373   1.786   5.455
   43POPC    CC 5524   0.465   1.863   5.384
   43POPC    CD 5525   0.409   1.990   5.323
   43POPC    OE 5526   0.325   1.953   5.216
   43POPC   C1A 5527   0.241   2.048   5.175
   43POPC    OF 5528   0.222   2.159   5.227
   43POPC   C1B 5529   0.157   1.985   5.066
   43POPC   C1C 5530   0.060   2.079   4.988
   43POPC   C1D 5531   0.141   2.159   4.885
   43POPC   C1E 5532   0.057   2.225   4.777
   43POPC   C1F 5533   0.135   2.328   4.692
   43POPC   C1G 5534   0.043   2.362   4.570
   43POPC   C1H 5535   0.126   2.434   4.462
   43POPC   C1I 5536   0.017   2.480   4.365
   43POPC   C1J 5537   0.009   2.451   4.237
   43POPC   C1K 5538   0.092   2.361   4.157
   43POPC   C1L 5539   0.087   2.371   4.000
   43POPC   C1M 5540   0.158   2.503   3.964
   43POPC   C1N 5541   0.189   2.524   3.814
   43POPC   C1O 5542   0.079   2.484   3.710
   43POPC   C1P 5543   0.105   2.522   3.572
   43POPC   C1Q 5544   0.209   2.433   3.499
   43POPC   C1R 5545   0.250   2.494   3.359
   43POPC    CE 5546   0.513   2.090   5.289
   43POPC    OG 5547   0.606   2.040   5.190
   43POPC   C2A 5548   0.596   2.087   5.068
   43POPC    OH 5549   0.525   2.181   5.031
   43POPC   C2B 5550   0.688   2.012   4.977
   43POPC   C2C 5551   0.627   2.009   4.834
   43POPC   C2D 5552   0.700   1.918   4.739
   43POPC   C2E 5553   0.645   1.914   4.589
   43POPC   C2F 5554   0.721   1.825   4.487
   43POPC   C2G 5555   0.660   1.832   4.343
   43POPC   C2H 5556   0.725   1.729   4.249
   43POPC   C2I 5557   0.659   1.740   4.108
   43POPC   C2J 5558   0.702   1.624   4.016
   43POPC   C2K 5559   0.613   1.635   3.894
   43POPC   C2L 5560   0.655   1.533   3.786
   43POPC   C2M 5561   0.541   1.500   3.688
   43POPC   C2N 5562   0.598   1.431   3.567
   43POPC   C2O 5563   0.490   1.388   3.468
   43POPC   C2P 5564   0.548   1.311   3.350
   44POPC   CN1 5565   3.981   5.512   5.702
   44POPC   CN2 5566   3.763   5.534   5.600
   44POPC   CN3 5567   3.796   5.532   5.850
   44POPC   NTM 5568   3.839   5.472   5.716
   44POPC    CA 5569   3.828   5.314   5.727
   44POPC    CB 5570   3.678   5.274   5.750
   44POPC    OA 5571   3.599   5.322   5.640
   44POPC     P 5572   3.452   5.275   5.624
   44POPC    OB 5573   3.382   5.397   5.660
   44POPC    OC 5574   3.427   5.153   5.700
   44POPC    OD 5575   3.440   5.252   5.469
   44POPC    CC 5576   3.543   5.215   5.382
   44POPC    CD 5577   3.618   5.331   5.319
   44POPC    OE 5578   3.532   5.392   5.225
   44POPC   C1A 5579   3.568   5.515   5.188
   44POPC    OF 5580   3.661   5.582   5.232
   44POPC   C1B 5581   3.458   5.562   5.094
   44POPC   C1C 5582   3.482   5.698   5.021
   44POPC   C1D 5583   3.579   5.675   4.903
   44POPC   C1E 5584   3.582   5.787   4.801
   44POPC   C1F 5585   3.698   5.776   4.700
   44POPC   C1G 5586   3.667   5.880   4.588
   44POPC   C1H 5587   3.757   5.851   4.465
   44POPC   C1I 5588   3.731   5.975   4.378
   44POPC   C1J 5589   3.686   5.974   4.255
   44POPC   C1K 5590   3.639   5.863   4.172
   44POPC   C1L 5591   3.627   5.882   4.016
   44POPC   C1M 5592   3.771   5.889   3.963
   44POPC   C1N 5593   3.786   5.882   3.809
   44POPC   C1O 5594   3.684   5.963   3.722
   44POPC   C1P 5595   3.713   5.969   3.579
   44POPC   C1Q 5596   3.678   5.839   3.502
   44POPC   C1R 5597   3.733   5.843   3.354
   44POPC    CE 5598   3.751   5.292   5.266
   44POPC    OG 5599   3.741   5.194   5.161
   44POPC   C2A 5600   3.762   5.233   5.038
   44POPC    OH 5601   3.803   5.343   5.002
   44POPC   C2B 5602   3.731   5.122   4.942
   44POPC   C2C 5603   3.680   5.182   4.807
   44POPC   C2D 5604   3.626   5.080   4.712
   44POPC   C2E 5605   3.577   5.135   4.570
   44POPC   C2F 5606   3.525   5.031   4.467
   44POPC   C2G 5607   3.483   5.097   4.331
   44POPC   C2H 5608   3.415   4.995   4.239
   44POPC   C2I 5609   3.374   5.066   4.105
   44POPC   C2J 5610   3.284   4.977   4.019
   44POPC   C2K 5611   3.234   5.067   3.907
   44POPC   C2L 5612   3.154   4.987   3.803
   44POPC   C2M 5613   3.058   5.075   3.722
   44POPC   C2N 5614   3.011   4.998   3.601
   44POPC   C2O 5615   2.909   5.077   3.518
   44POPC   C2P 5616   2.856   4.996   3.400
   45POPC   CN1 5617   1.751   3.226   5.755
   45POPC   CN2 5618   1.936   3.224   5.600
   45POPC   CN3 5619   1.964   3.174   5.847
   45POPC   NTM 5620   1.894   3.261   5.742
   45POPC    CA 5621   1.916   3.413   5.781
   45POPC    CB 5622   2.069   3.446   5.775
   45POPC    OA 5623   2.117   3.422   5.641
   45POPC     P 5624   2.259   3.470   5.600
   45POPC    OB 5625   2.328   3.343   5.593
   45POPC    OC 5626   2.308   3.574   5.690
   45POPC    OD 5627   2.235   3.525   5.455
   45POPC    CC 5628   2.116   3.580   5.404
   45POPC    CD 5629   2.023   3.480   5.339
   45POPC    OE 5630   2.080   3.439   5.217
   45POPC   C1A 5631   2.030   3.327   5.166
   45POPC    OF 5632   1.946   3.252   5.217
   45POPC   C1B 5633   2.111   3.299   5.041
   45POPC   C1C 5634   2.063   3.182   4.950
   45POPC   C1D 5635   1.943   3.230   4.866
   45POPC   C1E 5636   1.910   3.142   4.748
   45POPC   C1F 5637   1.773   3.174   4.682
   45POPC   C1G 5638   1.771   3.095   4.547
   45POPC   C1H 5639   1.657   3.150   4.459
   45POPC   C1I 5640   1.654   3.047   4.345
   45POPC   C1J 5641   1.668   3.072   4.218
   45POPC   C1K 5642   1.701   3.198   4.150
   45POPC   C1L 5643   1.675   3.212   3.995
   45POPC   C1M 5644   1.523   3.217   3.977
   45POPC   C1N 5645   1.472   3.256   3.836
   45POPC   C1O 5646   1.545   3.194   3.713
   45POPC   C1P 5647   1.484   3.219   3.583
   45POPC   C1Q 5648   1.507   3.362   3.527
   45POPC   C1R 5649   1.418   3.388   3.400
   45POPC    CE 5650   1.883   3.530   5.329
   45POPC    OG 5651   1.874   3.648   5.247
   45POPC   C2A 5652   1.822   3.635   5.127
   45POPC    OH 5653   1.767   3.535   5.081
   45POPC   C2B 5654   1.836   3.763   5.051
   45POPC   C2C 5655   1.850   3.732   4.899
   45POPC   C2D 5656   1.886   3.852   4.815
   45POPC   C2E 5657   1.896   3.827   4.658
   45POPC   C2F 5658   1.928   3.950   4.569
   45POPC   C2G 5659   1.933   3.913   4.416
   45POPC   C2H 5660   1.984   4.031   4.332
   45POPC   C2I 5661   1.988   3.990   4.181
   45POPC   C2J 5662   2.060   4.094   4.095
   45POPC   C2K 5663   2.076   4.029   3.958
   45POPC   C2L 5664   2.134   4.128   3.856
   45POPC   C2M 5665   2.203   4.058   3.739
   45POPC   C2N 5666   2.224   4.159   3.628
   45POPC   C2O 5667   2.299   4.098   3.508
   45POPC   C2P 5668   2.328   4.202   3.400
   46POPC   CN1 5669   0.102   5.433   5.662
   46POPC   CN2 5670   0.299   5.335   5.562
   46POPC   CN3 5671   0.262   5.341   5.812
   46POPC   NTM 5672   0.248   5.417   5.680
   46POPC    CA 5673   0.317   5.558   5.698
   46POPC    CB 5674   0.470   5.539   5.724
   46POPC    OA 5675   0.529   5.470   5.613
   46POPC     P 5676   0.683   5.458   5.601
   46POPC    OB 5677   0.702   5.319   5.633
   46POPC    OC 5678   0.749   5.560   5.682
   46POPC    OD 5679   0.707   5.481   5.448
   46POPC    CC 5680   0.627   5.557   5.361
   46POPC    CD 5681   0.517   5.479   5.292
   46POPC    OE 5682   0.577   5.393   5.197
   46POPC   C1A 5683   0.499   5.294   5.154
   46POPC    OF 5684   0.387   5.264   5.194
   46POPC   C1B 5685   0.586   5.213   5.059
   46POPC   C1C 5686   0.515   5.098   4.981
   46POPC   C1D 5687   0.438   5.159   4.863
   46POPC   C1E 5688   0.396   5.060   4.756
   46POPC   C1F 5689   0.295   5.117   4.654
   46POPC   C1G 5690   0.288   5.012   4.538
   46POPC   C1H 5691   0.219   5.077   4.416
   46POPC   C1I 5692   0.199   4.956   4.324
   46POPC   C1J 5693   0.244   4.944   4.201
   46POPC   C1K 5694   0.332   5.032   4.124
   46POPC   C1L 5695   0.341   5.015   3.967
   46POPC   C1M 5696   0.206   5.064   3.911
   46POPC   C1N 5697   0.199   5.081   3.758
   46POPC   C1O 5698   0.266   4.971   3.669
   46POPC   C1P 5699   0.241   4.981   3.526
   46POPC   C1Q 5700   0.324   5.091   3.455
   46POPC   C1R 5701   0.274   5.113   3.306
   46POPC    CE 5702   0.409   5.566   5.239
   46POPC    OG 5703   0.458   5.657   5.138
   46POPC   C2A 5704   0.428   5.633   5.013
   46POPC    OH 5705   0.349   5.547   4.972
   46POPC   C2B 5706   0.500   5.727   4.923
   46POPC   C2C 5707   0.529   5.657   4.786
   46POPC   C2D 5708   0.620   5.735   4.696
   46POPC   C2E 5709   0.648   5.671   4.552
   46POPC   C2F 5710   0.738   5.751   4.455
   46POPC   C2G 5711   0.756   5.679   4.316
   46POPC   C2H 5712   0.860   5.751   4.229
   46POPC   C2I 5713   0.875   5.675   4.094
   46POPC   C2J 5714   0.994   5.727   4.012
   46POPC   C2K 5715   1.010   5.629   3.897
   46POPC   C2L 5716   1.117   5.677   3.797
   46POPC   C2M 5717   1.176   5.562   3.714
   46POPC   C2N 5718   1.251   5.620   3.597
   46POPC   C2O 5719   1.319   5.512   3.512
   46POPC   C2P 5720   1.402   5.571   3.399
   47POPC   CN1 5721   5.712   0.479   5.661
   47POPC   CN2 5722   5.544   0.618   5.558
   47POPC   CN3 5723   5.580   0.611   5.808
   47POPC   NTM 5724   5.574   0.530   5.678
   47POPC    CA 5725   5.473   0.410   5.700
   47POPC    CB 5726   5.329   0.466   5.726
   47POPC    OA 5727   5.289   0.545   5.612
   47POPC     P 5728   5.141   0.593   5.600
   47POPC    OB 5729   5.158   0.734   5.628
   47POPC    OC 5730   5.053   0.512   5.684
   47POPC    OD 5731   5.112   0.573   5.447
   47POPC    CC 5732   5.171   0.477   5.362
   47POPC    CD 5733   5.297   0.524   5.291
   47POPC    OE 5734   5.259   0.619   5.194
   47POPC   C1A 5735   5.358   0.695   5.148
   47POPC    OF 5736   5.475   0.698   5.188
   47POPC   C1B 5737   5.293   0.792   5.051
   47POPC   C1C 5738   5.389   0.885   4.970
   47POPC   C1D 5739   5.449   0.803   4.854
   47POPC   C1E 5740   5.513   0.886   4.745
   47POPC   C1F 5741   5.597   0.804   4.644
   47POPC   C1G 5742   5.628   0.900   4.525
   47POPC   C1H 5743   5.679   0.817   4.405
   47POPC   C1I 5744   5.727   0.928   4.310
   47POPC   C1J 5745   5.685   0.947   4.187
   47POPC   C1K 5746   5.579   0.880   4.112
   47POPC   C1L 5747   5.574   0.895   3.955
   47POPC   C1M 5748   5.692   0.813   3.901
   47POPC   C1N 5749   5.694   0.790   3.748
   47POPC   C1O 5750   5.656   0.911   3.655
   47POPC   C1P 5751   5.677   0.891   3.513
   47POPC   C1Q 5752   5.569   0.802   3.444
   47POPC   C1R 5753   5.611   0.765   3.297
   47POPC    CE 5754   5.380   0.412   5.241
   47POPC    OG 5755   5.310   0.333   5.143
   47POPC   C2A 5756   5.345   0.346   5.017
   47POPC    OH 5757   5.442   0.409   4.975
   47POPC   C2B 5758   5.251   0.269   4.929
   47POPC   C2C 5759   5.240   0.340   4.791
   47POPC   C2D 5760   5.132   0.284   4.703
   47POPC   C2E 5761   5.120   0.349   4.558
   47POPC   C2F 5762   5.013   0.290   4.462
   47POPC   C2G 5763   5.011   0.361   4.321
   47POPC   C2H 5764   4.893   0.314   4.236
   47POPC   C2I 5765   4.896   0.387   4.098
   47POPC   C2J 5766   4.767   0.364   4.018
   47POPC   C2K 5767   4.775   0.459   3.900
   47POPC   C2L 5768   4.659   0.436   3.802
   47POPC   C2M 5769   4.630   0.559   3.716
   47POPC   C2N 5770   4.542   0.518   3.600
   47POPC   C2O 5771   4.502   0.636   3.512
   47POPC   C2P 5772   4.407   0.596   3.400
   48POPC   CN1 5773   3.081   1.191   5.753
   48POPC   CN2 5774   2.882   1.150   5.624
   48POPC   CN3 5775   2.883   1.148   5.877
   48POPC   NTM 5776   2.958   1.109   5.749
   48POPC    CA 5777   2.994   0.955   5.758
   48POPC    CB 5778   2.862   0.871   5.762
   48POPC    OA 5779   2.786   0.897   5.642
   48POPC     P 5780   2.663   0.809   5.608
   48POPC    OB 5781   2.556   0.902   5.634
   48POPC    OC 5782   2.668   0.682   5.679
   48POPC    OD 5783   2.678   0.789   5.452
   48POPC    CC 5784   2.798   0.789   5.379
   48POPC    CD 5785   2.841   0.924   5.326
   48POPC    OE 5786   2.753   0.960   5.222
   48POPC   C1A 5787   2.753   1.089   5.190
   48POPC    OF 5788   2.815   1.180   5.246
   48POPC   C1B 5789   2.648   1.106   5.083
   48POPC   C1C 5790   2.638   1.245   5.014
   48POPC   C1D 5791   2.750   1.257   4.909
   48POPC   C1E 5792   2.732   1.368   4.809
   48POPC   C1F 5793   2.857   1.397   4.724
   48POPC   C1G 5794   2.810   1.492   4.608
   48POPC   C1H 5795   2.919   1.495   4.498
   48POPC   C1I 5796   2.868   1.610   4.409
   48POPC   C1J 5797   2.841   1.600   4.281
   48POPC   C1K 5798   2.840   1.484   4.193
   48POPC   C1L 5799   2.842   1.505   4.036
   48POPC   C1M 5800   2.982   1.556   4.002
   48POPC   C1N 5801   3.018   1.561   3.851
   48POPC   C1O 5802   2.908   1.611   3.752
   48POPC   C1P 5803   2.951   1.630   3.614
   48POPC   C1Q 5804   2.966   1.499   3.533
   48POPC   C1R 5805   3.036   1.526   3.394
   48POPC    CE 5806   2.985   0.930   5.291
   48POPC    OG 5807   3.018   0.837   5.185
   48POPC   C2A 5808   3.041   0.886   5.066
   48POPC    OH 5809   3.051   1.005   5.036
   48POPC   C2B 5810   3.057   0.774   4.967
   48POPC   C2C 5811   3.008   0.822   4.827
   48POPC   C2D 5812   2.999   0.712   4.725
   48POPC   C2E 5813   2.954   0.756   4.578
   48POPC   C2F 5814   2.949   0.645   4.470
   48POPC   C2G 5815   2.906   0.701   4.329
   48POPC   C2H 5816   2.884   0.587   4.229
   48POPC   C2I 5817   2.840   0.647   4.091
   48POPC   C2J 5818   2.793   0.539   3.994
   48POPC   C2K 5819   2.733   0.614   3.876
   48POPC   C2L 5820   2.694   0.518   3.763
   48POPC   C2M 5821   2.586   0.576   3.670
   48POPC   C2N 5822   2.580   0.494   3.544
   48POPC   C2O 5823   2.470   0.541   3.448
   48POPC   C2P 5824   2.459   0.453   3.325
   49POPC   CN1 5825   3.340   2.787   5.759
   49POPC   CN2 5826   3.253   2.952   5.606
   49POPC   CN3 5827   3.279   2.997   5.853
   49POPC   NTM 5828   3.240   2.895   5.746
   49POPC    CA 5829   3.095   2.840   5.782
   49POPC    CB 5830   2.991   2.957   5.775
   49POPC    OA 5831   2.992   3.012   5.643
   49POPC     P 5832   2.881   3.113   5.601
   49POPC    OB 5833   2.958   3.236   5.597
   49POPC    OC 5834   2.765   3.104   5.689
   49POPC    OD 5835   2.847   3.068   5.454
   49POPC    CC 5836   2.858   2.938   5.403
   49POPC    CD 5837   2.992   2.906   5.339
   49POPC    OE 5838   3.002   2.978   5.218
   49POPC   C1A 5839   3.125   2.990   5.169
   49POPC    OF 5840   3.230   2.953   5.222
   49POPC   C1B 5841   3.112   3.075   5.045
   49POPC   C1C 5842   3.239   3.092   4.957
   49POPC   C1D 5843   3.257   2.965   4.872
   49POPC   C1E 5844   3.353   2.981   4.755
   49POPC   C1F 5845   3.392   2.847   4.688
   49POPC   C1G 5846   3.464   2.886   4.555
   49POPC   C1H 5847   3.474   2.760   4.465
   49POPC   C1I 5848   3.568   2.810   4.353
   49POPC   C1J 5849   3.540   2.812   4.225
   49POPC   C1K 5850   3.415   2.780   4.155
   49POPC   C1L 5851   3.419   2.753   4.000
   49POPC   C1M 5852   3.489   2.617   3.981
   49POPC   C1N 5853   3.483   2.556   3.839
   49POPC   C1O 5854   3.503   2.652   3.717
   49POPC   C1P 5855   3.514   2.588   3.587
   49POPC   C1Q 5856   3.379   2.539   3.528
   49POPC   C1R 5857   3.401   2.450   3.400
   49POPC    CE 5858   3.017   2.760   5.327
   49POPC    OG 5859   2.921   2.695   5.242
   49POPC   C2A 5860   2.959   2.658   5.123
   49POPC    OH 5861   3.074   2.660   5.079
   49POPC   C2B 5862   2.841   2.609   5.044
   49POPC   C2C 5863   2.864   2.638   4.893
   49POPC   C2D 5864   2.744   2.612   4.807
   49POPC   C2E 5865   2.763   2.636   4.650
   49POPC   C2F 5866   2.642   2.605   4.558
   49POPC   C2G 5867   2.674   2.629   4.406
   49POPC   C2H 5868   2.547   2.616   4.320
   49POPC   C2I 5869   2.585   2.642   4.170
   49POPC   C2J 5870   2.460   2.655   4.082
   49POPC   C2K 5871   2.511   2.703   3.947
   49POPC   C2L 5872   2.398   2.707   3.843
   49POPC   C2M 5873   2.427   2.803   3.727
   49POPC   C2N 5874   2.331   2.774   3.614
   49POPC   C2O 5875   2.349   2.870   3.496
   49POPC   C2P 5876   2.247   2.846   3.386
   50POPC   CN1 5877   5.616   5.695   5.714
   50POPC   CN2 5878   5.454   5.844   5.614
   50POPC   CN3 5879   5.473   5.811   5.864
   50POPC   NTM 5880   5.477   5.744   5.726
   50POPC    CA 5881   5.376   5.622   5.728
   50POPC    CB 5882   5.230   5.674   5.750
   50POPC    OA 5883   5.197   5.764   5.643
   50POPC     P 5884   5.050   5.811   5.625
   50POPC    OB 5885   5.062   5.949   5.668
   50POPC    OC 5886   4.957   5.722   5.694
   50POPC    OD 5887   5.031   5.807   5.469
   50POPC    CC 5888   5.096   5.721   5.379
   50POPC    CD 5889   5.226   5.776   5.323
   50POPC    OE 5890   5.194   5.880   5.233
   50POPC   C1A 5891   5.294   5.961   5.202
   50POPC    OF 5892   5.408   5.961   5.250
   50POPC   C1B 5893   5.235   6.068   5.112
   50POPC   C1C 5894   5.335   6.168   5.047
   50POPC   C1D 5895   5.404   6.099   4.927
   50POPC   C1E 5896   5.474   6.194   4.832
   50POPC   C1F 5897   5.565   6.123   4.729
   50POPC   C1G 5898   5.603   6.231   4.623
   50POPC   C1H 5899   5.663   6.161   4.499
   50POPC   C1I 5900   5.716   6.281   4.419
   50POPC   C1J 5901   5.682   6.313   4.296
   50POPC   C1K 5902   5.582   6.253   4.208
   50POPC   C1L 5903   5.587   6.284   4.053
   50POPC   C1M 5904   5.710   6.209   3.999
   50POPC   C1N 5905   5.723   6.202   3.845
   50POPC   C1O 5906   5.689   6.332   3.763
   50POPC   C1P 5907   5.720   6.326   3.621
   50POPC   C1Q 5908   5.618   6.245   3.537
   50POPC   C1R 5909   5.670   6.223   3.389
   50POPC    CE 5910   5.314   5.670   5.267
   50POPC    OG 5911   5.252   5.601   5.156
   50POPC   C2A 5912   5.295   5.627   5.036
   50POPC    OH 5913   5.393   5.695   5.006
   50POPC   C2B 5914   5.208   5.559   4.934
   50POPC   C2C 5915   5.206   5.644   4.804
   50POPC   C2D 5916   5.105   5.597   4.703
   50POPC   C2E 5917   5.101   5.677   4.564
   50POPC   C2F 5918   5.002   5.627   4.456
   50POPC   C2G 5919   5.009   5.712   4.324
   50POPC   C2H 5920   4.897   5.673   4.227
   50POPC   C2I 5921   4.908   5.760   4.097
   50POPC   C2J 5922   4.786   5.744   4.007
   50POPC   C2K 5923   4.800   5.851   3.900
   50POPC   C2L 5924   4.691   5.838   3.792
   50POPC   C2M 5925   4.666   5.969   3.717
   50POPC   C2N 5926   4.587   5.939   3.592
   50POPC   C2O 5927   4.551   6.066   3.514
   50POPC   C2P 5928   4.464   6.037   3.392
   51POPC   CN1 5929   4.153   3.887   5.736
   51POPC   CN2 5930   4.347   3.897   5.593
   51POPC   CN3 5931   4.362   3.853   5.842
   51POPC   NTM 5932   4.293   3.932   5.731
   51POPC    CA 5933   4.302   4.086   5.768
   51POPC    CB 5934   4.452   4.131   5.770
   51POPC    OA 5935   4.509   4.108   5.641
   51POPC     P 5936   4.650   4.166   5.607
   51POPC    OB 5937   4.728   4.045   5.607
   51POPC    OC 5938   4.685   4.275   5.698
   51POPC    OD 5939   4.631   4.216   5.459
   51POPC    CC 5940   4.512   4.262   5.401
   51POPC    CD 5941   4.430   4.154   5.332
   51POPC    OE 5942   4.498   4.116   5.215
   51POPC   C1A 5943   4.459   3.999   5.163
   51POPC    OF 5944   4.378   3.919   5.211
   51POPC   C1B 5945   4.550   3.976   5.043
   51POPC   C1C 5946   4.516   3.853   4.953
   51POPC   C1D 5947   4.398   3.891   4.861
   51POPC   C1E 5948   4.379   3.798   4.743
   51POPC   C1F 5949   4.245   3.819   4.668
   51POPC   C1G 5950   4.257   3.738   4.535
   51POPC   C1H 5951   4.145   3.783   4.439
   51POPC   C1I 5952   4.156   3.677   4.327
   51POPC   C1J 5953   4.177   3.702   4.200
   51POPC   C1K 5954   4.204   3.829   4.132
   51POPC   C1L 5955   4.187   3.838   3.975
   51POPC   C1M 5956   4.036   3.832   3.948
   51POPC   C1N 5957   3.991   3.864   3.804
   51POPC   C1O 5958   4.076   3.806   3.686
   51POPC   C1P 5959   4.021   3.823   3.553
   51POPC   C1Q 5960   4.037   3.966   3.496
   51POPC   C1R 5961   3.954   3.984   3.362
   51POPC    CE 5962   4.288   4.193   5.313
   51POPC    OG 5963   4.275   4.308   5.227
   51POPC   C2A 5964   4.232   4.290   5.105
   51POPC    OH 5965   4.187   4.185   5.058
   51POPC   C2B 5966   4.241   4.418   5.027
   51POPC   C2C 5967   4.266   4.385   4.877
   51POPC   C2D 5968   4.298   4.505   4.793
   51POPC   C2E 5969   4.320   4.479   4.637
   51POPC   C2F 5970   4.349   4.602   4.548
   51POPC   C2G 5971   4.366   4.564   4.396
   51POPC   C2H 5972   4.412   4.684   4.313
   51POPC   C2I 5973   4.428   4.640   4.164
   51POPC   C2J 5974   4.498   4.748   4.080
   51POPC   C2K 5975   4.527   4.682   3.946
   51POPC   C2L 5976   4.584   4.784   3.845
   51POPC   C2M 5977   4.665   4.718   3.734
   51POPC   C2N 5978   4.686   4.817   3.622
   51POPC   C2O 5979   4.772   4.761   3.509
   51POPC   C2P 5980   4.800   4.864   3.400
   52POPC   CN1 5981   1.510   4.237   5.748
   52POPC   CN2 5982   1.544   4.053   5.596
   52POPC   CN3 5983   1.500   4.020   5.843
   52POPC   NTM 5984   1.572   4.104   5.737
   52POPC    CA 5985   1.725   4.111   5.776
   52POPC    CB 5986   1.788   3.967   5.772
   52POPC    OA 5987   1.773   3.914   5.639
   52POPC     P 5988   1.847   3.783   5.600
   52POPC    OB 5989   1.736   3.691   5.594
   52POPC    OC 5990   1.958   3.757   5.690
   52POPC    OD 5991   1.897   3.815   5.454
   52POPC    CC 5992   1.928   3.942   5.402
   52POPC    CD 5993   1.812   4.014   5.336
   52POPC    OE 5994   1.784   3.948   5.214
   52POPC   C1A 5995   1.664   3.975   5.162
   52POPC    OF 5996   1.574   4.044   5.213
   52POPC   C1B 5997   1.653   3.889   5.039
   52POPC   C1C 5998   1.528   3.912   4.947
   52POPC   C1D 5999   1.553   4.038   4.862
   52POPC   C1E 6000   1.460   4.053   4.744
   52POPC   C1F 6001   1.466   4.192   4.676
   52POPC   C1G 6002   1.388   4.177   4.541
   52POPC   C1H 6003   1.420   4.299   4.451
   52POPC   C1I 6004   1.318   4.280   4.337
   52POPC   C1J 6005   1.347   4.269   4.210
   52POPC   C1K 6006   1.477   4.261   4.143
   52POPC   C1L 6007   1.485   4.287   3.987
   52POPC   C1M 6008   1.461   4.437   3.968
   52POPC   C1N 6009   1.490   4.492   3.826
   52POPC   C1O 6010   1.443   4.407   3.704
   52POPC   C1P 6011   1.456   4.471   3.573
   52POPC   C1Q 6012   1.600   4.475   3.518
   52POPC   C1R 6013   1.610   4.566   3.389
   52POPC    CE 6014   1.834   4.160   5.324
   52POPC    OG 6015   1.948   4.191   5.241
   52POPC   C2A 6016   1.927   4.238   5.121
   52POPC    OH 6017   1.818   4.272   5.075
   52POPC   C2B 6018   2.055   4.248   5.045
   52POPC   C2C 6019   2.027   4.226   4.893
   52POPC   C2D 6020   2.152   4.213   4.810
   52POPC   C2E 6021   2.130   4.196   4.653
   52POPC   C2F 6022   2.257   4.187   4.564
   52POPC   C2G 6023   2.222   4.173   4.411
   52POPC   C2H 6024   2.348   4.145   4.328
   52POPC   C2I 6025   2.308   4.132   4.177
   52POPC   C2J 6026   2.424   4.080   4.092
   52POPC   C2K 6027   2.364   4.049   3.955
   52POPC   C2L 6028   2.473   4.010   3.854
   52POPC   C2M 6029   2.418   3.928   3.737
   52POPC   C2N 6030   2.520   3.924   3.626
   52POPC   C2O 6031   2.476   3.838   3.508
   52POPC   C2P 6032   2.583   3.828   3.400
   53POPC   CN1 6033   4.948   4.392   5.714
   53POPC   CN2 6034   5.097   4.550   5.608
   53POPC   CN3 6035   5.062   4.543   5.858
   53POPC   NTM 6036   4.997   4.532   5.721
   53POPC    CA 6037   4.874   4.632   5.717
   53POPC    CB 6038   4.926   4.779   5.732
   53POPC    OA 6039   5.017   4.808   5.624
   53POPC     P 6040   5.064   4.954   5.600
   53POPC    OB 6041   5.202   4.944   5.645
   53POPC    OC 6042   4.974   5.050   5.663
   53POPC    OD 6043   5.061   4.965   5.443
   53POPC    CC 6044   4.977   4.895   5.356
   53POPC    CD 6045   5.032   4.763   5.306
   53POPC    OE 6046   5.137   4.792   5.215
   53POPC   C1A 6047   5.218   4.690   5.190
   53POPC    OF 6048   5.218   4.578   5.244
   53POPC   C1B 6049   5.325   4.744   5.098
   53POPC   C1C 6050   5.427   4.642   5.039
   53POPC   C1D 6051   5.359   4.567   4.922
   53POPC   C1E 6052   5.454   4.493   4.831
   53POPC   C1F 6053   5.384   4.397   4.733
   53POPC   C1G 6054   5.494   4.354   4.629
   53POPC   C1H 6055   5.425   4.288   4.507
   53POPC   C1I 6056   5.546   4.232   4.431
   53POPC   C1J 6057   5.579   4.259   4.307
   53POPC   C1K 6058   5.520   4.355   4.213
   53POPC   C1L 6059   5.552   4.343   4.060
   53POPC   C1M 6060   5.477   4.217   4.011
   53POPC   C1N 6061   5.472   4.197   3.858
   53POPC   C1O 6062   5.602   4.227   3.775
   53POPC   C1P 6063   5.598   4.190   3.635
   53POPC   C1Q 6064   5.517   4.287   3.545
   53POPC   C1R 6065   5.497   4.227   3.400
   53POPC    CE 6066   4.927   4.673   5.253
   53POPC    OG 6067   4.859   4.729   5.140
   53POPC   C2A 6068   4.885   4.680   5.021
   53POPC    OH 6069   4.953   4.581   4.997
   53POPC   C2B 6070   4.818   4.762   4.915
   53POPC   C2C 6071   4.904   4.759   4.785
   53POPC   C2D 6072   4.858   4.854   4.679
   53POPC   C2E 6073   4.939   4.852   4.542
   53POPC   C2F 6074   4.890   4.946   4.428
   53POPC   C2G 6075   4.976   4.932   4.297
   53POPC   C2H 6076   4.938   5.040   4.194
   53POPC   C2I 6077   5.026   5.022   4.067
   53POPC   C2J 6078   5.011   5.140   3.970
   53POPC   C2K 6079   5.119   5.121   3.865
   53POPC   C2L 6080   5.106   5.224   3.752
   53POPC   C2M 6081   5.238   5.246   3.677
   53POPC   C2N 6082   5.209   5.319   3.548
   53POPC   C2O 6083   5.337   5.351   3.469
   53POPC   C2P 6084   5.308   5.432   3.343
   54POPC   CN1 6085   2.019   2.572   5.666
   54POPC   CN2 6086   2.229   2.654   5.579
   54POPC   CN3 6087   2.176   2.651   5.826
   54POPC   NTM 6088   2.122   2.676   5.685
   54POPC    CA 6089   2.055   2.819   5.683
   54POPC    CB 6090   2.164   2.929   5.712
   54POPC    OA 6091   2.266   2.920   5.611
   54POPC     P 6092   2.374   3.032   5.600
   54POPC    OB 6093   2.489   2.961   5.650
   54POPC    OC 6094   2.329   3.154   5.666
   54POPC    OD 6095   2.387   3.051   5.445
   54POPC    CC 6096   2.287   3.029   5.348
   54POPC    CD 6097   2.284   2.889   5.291
   54POPC    OE 6098   2.397   2.873   5.208
   54POPC   C1A 6099   2.429   2.747   5.179
   54POPC    OF 6100   2.376   2.645   5.224
   54POPC   C1B 6101   2.556   2.755   5.096
   54POPC   C1C 6102   2.607   2.621   5.034
   54POPC   C1D 6103   2.523   2.589   4.909
   54POPC   C1E 6104   2.583   2.486   4.817
   54POPC   C1F 6105   2.487   2.434   4.709
   54POPC   C1G 6106   2.574   2.353   4.608
   54POPC   C1H 6107   2.493   2.330   4.478
   54POPC   C1I 6108   2.583   2.230   4.403
   54POPC   C1J 6109   2.634   2.247   4.283
   54POPC   C1K 6110   2.629   2.363   4.194
   54POPC   C1L 6111   2.664   2.345   4.042
   54POPC   C1M 6112   2.547   2.267   3.980
   54POPC   C1N 6113   2.545   2.259   3.826
   54POPC   C1O 6114   2.681   2.233   3.752
   54POPC   C1P 6115   2.671   2.208   3.609
   54POPC   C1Q 6116   2.647   2.335   3.523
   54POPC   C1R 6117   2.614   2.297   3.374
   54POPC    CE 6118   2.155   2.855   5.227
   54POPC    OG 6119   2.126   2.941   5.115
   54POPC   C2A 6120   2.138   2.892   4.995
   54POPC    OH 6121   2.158   2.773   4.966
   54POPC   C2B 6122   2.121   3.000   4.892
   54POPC   C2C 6123   2.206   2.965   4.766
   54POPC   C2D 6124   2.213   3.077   4.666
   54POPC   C2E 6125   2.296   3.046   4.532
   54POPC   C2F 6126   2.300   3.157   4.424
   54POPC   C2G 6127   2.382   3.114   4.297
   54POPC   C2H 6128   2.401   3.232   4.201
   54POPC   C2I 6129   2.483   3.184   4.076
   54POPC   C2J 6130   2.527   3.302   3.988
   54POPC   C2K 6131   2.624   3.242   3.887
   54POPC   C2L 6132   2.665   3.346   3.782
   54POPC   C2M 6133   2.799   3.313   3.715
   54POPC   C2N 6134   2.814   3.397   3.590
   54POPC   C2O 6135   2.948   3.375   3.521
   54POPC   C2P 6136   2.967   3.466   3.400
   55POPC   CN1 6137   0.049   2.622   5.659
   55POPC   CN2 6138   0.234   2.740   5.558
   55POPC   CN3 6139   0.212   2.709   5.808
   55POPC   NTM 6140   0.139   2.738   5.677
   55POPC    CA 6141   0.054   2.871   5.696
   55POPC    CB 6142   0.151   2.991   5.723
   55POPC    OA 6143   0.240   3.005   5.611
   55POPC     P 6144   0.330   3.132   5.600
   55POPC    OB 6145   0.459   3.074   5.630
   55POPC    OC 6146   0.278   3.240   5.682
   55POPC    OD 6147   0.322   3.165   5.446
   55POPC    CC 6148   0.215   3.137   5.360
   55POPC    CD 6149   0.224   3.003   5.290
   55POPC    OE 6150   0.327   3.010   5.194
   55POPC   C1A 6151   0.371   2.892   5.150
   55POPC    OF 6152   0.338   2.780   5.190
   55POPC   C1B 6153   0.484   2.924   5.055
   55POPC   C1C 6154   0.545   2.804   4.975
   55POPC   C1D 6155   0.451   2.771   4.857
   55POPC   C1E 6156   0.513   2.685   4.750
   55POPC   C1F 6157   0.411   2.629   4.648
   55POPC   C1G 6158   0.496   2.570   4.531
   55POPC   C1H 6159   0.404   2.545   4.409
   55POPC   C1I 6160   0.496   2.465   4.316
   55POPC   C1J 6161   0.529   2.499   4.193
   55POPC   C1K 6162   0.499   2.620   4.117
   55POPC   C1L 6163   0.517   2.620   3.960
   55POPC   C1M 6164   0.405   2.531   3.905
   55POPC   C1N 6165   0.385   2.535   3.751
   55POPC   C1O 6166   0.513   2.535   3.661
   55POPC   C1P 6167   0.490   2.520   3.518
   55POPC   C1Q 6168   0.439   2.649   3.448
   55POPC   C1R 6169   0.394   2.619   3.300
   55POPC    CE 6170   0.092   2.957   5.237
   55POPC    OG 6171   0.040   3.046   5.138
   55POPC   C2A 6172   0.043   3.009   5.012
   55POPC    OH 6173   0.075   2.897   4.971
   55POPC   C2B 6174  -0.000   3.121   4.923
   55POPC   C2C 6175   0.074   3.109   4.786
   55POPC   C2D 6176   0.054   3.228   4.697
   55POPC   C2E 6177   0.123   3.220   4.553
   55POPC   C2F 6178   0.100   3.339   4.456
   55POPC   C2G 6179   0.170   3.319   4.317
   55POPC   C2H 6180   0.163   3.445   4.231
   55POPC   C2I 6181   0.234   3.420   4.095
   55POPC   C2J 6182   0.252   3.549   4.014
   55POPC   C2K 6183   0.343   3.512   3.898
   55POPC   C2L 6184   0.357   3.629   3.799
   55POPC   C2M 6185   0.485   3.620   3.715
   55POPC   C2N 6186   0.474   3.715   3.598
   55POPC   C2O 6187   0.601   3.717   3.513
   55POPC   C2P 6188   0.593   3.820   3.400
   56POPC   CN1 6189   2.654   5.000   5.740
   56POPC   CN2 6190   2.573   5.193   5.619
   56POPC   CN3 6191   2.565   5.177   5.871
   56POPC   NTM 6192   2.547   5.102   5.739
   56POPC    CA 6193   2.405   5.033   5.740
   56POPC    CB 6194   2.293   5.142   5.747
   56POPC    OA 6195   2.305   5.228   5.632
   56POPC     P 6196   2.192   5.330   5.600
   56POPC    OB 6197   2.258   5.454   5.635
   56POPC    OC 6198   2.068   5.293   5.666
   56POPC    OD 6199   2.181   5.320   5.443
   56POPC    CC 6200   2.209   5.207   5.365
   56POPC    CD 6201   2.352   5.199   5.315
   56POPC    OE 6202   2.370   5.298   5.217
   56POPC   C1A 6203   2.497   5.328   5.189
   56POPC    OF 6204   2.598   5.285   5.247
   56POPC   C1B 6205   2.492   5.440   5.088
   56POPC   C1C 6206   2.628   5.485   5.025
   56POPC   C1D 6207   2.667   5.384   4.916
   56POPC   C1E 6208   2.774   5.432   4.821
   56POPC   C1F 6209   2.833   5.321   4.731
   56POPC   C1G 6210   2.918   5.395   4.622
   56POPC   C1H 6211   2.949   5.296   4.507
   56POPC   C1I 6212   3.051   5.376   4.425
   56POPC   C1J 6213   3.039   5.407   4.298
   56POPC   C1K 6214   2.928   5.387   4.206
   56POPC   C1L 6215   2.953   5.398   4.050
   56POPC   C1M 6216   3.036   5.275   4.011
   56POPC   C1N 6217   3.053   5.250   3.859
   56POPC   C1O 6218   3.079   5.374   3.767
   56POPC   C1P 6219   3.112   5.344   3.628
   56POPC   C1Q 6220   2.990   5.304   3.542
   56POPC   C1R 6221   3.036   5.250   3.400
   56POPC    CE 6222   2.391   5.061   5.273
   56POPC    OG 6223   2.312   5.014   5.163
   56POPC   C2A 6224   2.367   5.009   5.044
   56POPC    OH 6225   2.486   5.028   5.019
   56POPC   C2B 6226   2.265   4.974   4.940
   56POPC   C2C 6227   2.304   5.041   4.805
   56POPC   C2D 6228   2.198   5.030   4.699
   56POPC   C2E 6229   2.234   5.092   4.557
   56POPC   C2F 6230   2.128   5.078   4.444
   56POPC   C2G 6231   2.177   5.140   4.308
   56POPC   C2H 6232   2.063   5.142   4.204
   56POPC   C2I 6233   2.116   5.205   4.071
   56POPC   C2J 6234   2.003   5.232   3.972
   56POPC   C2K 6235   2.066   5.314   3.861
   56POPC   C2L 6236   1.966   5.337   3.745
   56POPC   C2M 6237   2.001   5.459   3.661
   56POPC   C2N 6238   1.923   5.454   3.531
   56POPC   C2O 6239   1.947   5.577   3.443
   56POPC   C2P 6240   1.862   5.575   3.317
   57POPC   CN1 6241   3.034   6.265   5.664
   57POPC   CN2 6242   3.159   6.085   5.562
   57POPC   CN3 6243   3.128   6.105   5.812
   57POPC   NTM 6244   3.154   6.180   5.681
   57POPC    CA 6245   3.282   6.270   5.701
   57POPC    CB 6246   3.407   6.179   5.727
   57POPC    OA 6247   3.425   6.091   5.615
   57POPC     P 6248   3.555   6.007   5.602
   57POPC    OB 6249   3.503   5.875   5.632
   57POPC    OC 6250   3.662   6.063   5.685
   57POPC    OD 6251   3.588   6.017   5.449
   57POPC    CC 6252   3.555   6.123   5.363
   57POPC    CD 6253   3.421   6.109   5.293
   57POPC    OE 6254   3.432   6.007   5.197
   57POPC   C1A 6255   3.316   5.958   5.153
   57POPC    OF 6256   3.203   5.986   5.193
   57POPC   C1B 6257   3.353   5.846   5.057
   57POPC   C1C 6258   3.236   5.781   4.977
   57POPC   C1D 6259   3.198   5.874   4.860
   57POPC   C1E 6260   3.115   5.808   4.752
   57POPC   C1F 6261   3.054   5.908   4.651
   57POPC   C1G 6262   2.998   5.821   4.534
   57POPC   C1H 6263   2.970   5.913   4.412
   57POPC   C1I 6264   2.894   5.818   4.319
   57POPC   C1J 6265   2.928   5.787   4.196
   57POPC   C1K 6266   3.048   5.823   4.120
   57POPC   C1L 6267   3.048   5.806   3.963
   57POPC   C1M 6268   2.954   5.915   3.908
   57POPC   C1N 6269   2.957   5.935   3.755
   57POPC   C1O 6270   2.962   5.807   3.664
   57POPC   C1P 6271   2.947   5.830   3.521
   57POPC   C1Q 6272   3.073   5.887   3.451
   57POPC   C1R 6273   3.040   5.932   3.303
   57POPC    CE 6274   3.369   6.238   5.242
   57POPC    OG 6275   3.456   6.296   5.142
   57POPC   C2A 6276   3.418   6.291   5.017
   57POPC    OH 6277   3.308   6.254   4.975
   57POPC   C2B 6278   3.528   6.340   4.927
   57POPC   C2C 6279   3.520   6.266   4.790
   57POPC   C2D 6280   3.637   6.292   4.701
   57POPC   C2E 6281   3.632   6.223   4.556
   57POPC   C2F 6282   3.750   6.252   4.460
   57POPC   C2G 6283   3.731   6.181   4.320
   57POPC   C2H 6284   3.858   6.195   4.234
   57POPC   C2I 6285   3.835   6.123   4.097
   57POPC   C2J 6286   3.964   6.112   4.016
   57POPC   C2K 6287   3.931   6.020   3.899
   57POPC   C2L 6288   4.049   6.011   3.800
   57POPC   C2M 6289   4.045   5.884   3.716
   57POPC   C2N 6290   4.140   5.899   3.599
   57POPC   C2O 6291   4.147   5.773   3.513
   57POPC   C2P 6292   4.249   5.786   3.400
   58POPC   CN1 6293   5.065   4.240   5.769
   58POPC   CN2 6294   4.913   4.118   5.625
   58POPC   CN3 6295   4.891   4.119   5.877
   58POPC   NTM 6296   4.987   4.114   5.758
   58POPC    CA 6297   5.083   3.989   5.777
   58POPC    CB 6298   4.998   3.857   5.774
   58POPC    OA 6299   4.930   3.849   5.648
   58POPC     P 6300   4.858   3.717   5.607
   58POPC    OB 6301   4.720   3.757   5.621
   58POPC    OC 6302   4.909   3.604   5.685
   58POPC    OD 6303   4.894   3.704   5.455
   58POPC    CC 6304   5.010   3.753   5.392
   58POPC    CD 6305   4.997   3.894   5.336
   58POPC    OE 6306   4.913   3.889   5.224
   58POPC   C1A 6307   4.863   4.006   5.186
   58POPC    OF 6308   4.876   4.115   5.243
   58POPC   C1B 6309   4.771   3.976   5.069
   58POPC   C1C 6310   4.710   4.098   4.993
   58POPC   C1D 6311   4.817   4.154   4.898
   58POPC   C1E 6312   4.764   4.247   4.791
   58POPC   C1F 6313   4.873   4.325   4.715
   58POPC   C1G 6314   4.802   4.390   4.592
   58POPC   C1H 6315   4.910   4.438   4.492
   58POPC   C1I 6316   4.825   4.520   4.393
   58POPC   C1J 6317   4.816   4.499   4.264
   58POPC   C1K 6318   4.872   4.392   4.181
   58POPC   C1L 6319   4.879   4.410   4.025
   58POPC   C1M 6320   4.989   4.516   4.000
   58POPC   C1N 6321   5.033   4.533   3.852
   58POPC   C1O 6322   4.922   4.532   3.742
   58POPC   C1P 6323   4.966   4.566   3.608
   58POPC   C1Q 6324   5.042   4.453   3.534
   58POPC   C1R 6325   5.107   4.505   3.400
   58POPC    CE 6326   5.129   3.958   5.313
   58POPC    OG 6327   5.207   3.887   5.215
   58POPC   C2A 6328   5.219   3.940   5.095
   58POPC    OH 6329   5.182   4.052   5.061
   58POPC   C2B 6330   5.290   3.844   5.003
   58POPC   C2C 6331   5.238   3.866   4.858
   58POPC   C2D 6332   5.286   3.761   4.761
   58POPC   C2E 6333   5.240   3.781   4.609
   58POPC   C2F 6334   5.292   3.678   4.506
   58POPC   C2G 6335   5.243   3.709   4.359
   58POPC   C2H 6336   5.279   3.595   4.263
   58POPC   C2I 6337   5.228   3.631   4.120
   58POPC   C2J 6338   5.239   3.512   4.024
   58POPC   C2K 6339   5.165   3.554   3.898
   58POPC   C2L 6340   5.180   3.450   3.786
   58POPC   C2M 6341   5.067   3.457   3.683
   58POPC   C2N 6342   5.108   3.378   3.560
   58POPC   C2O 6343   4.998   3.375   3.454
   58POPC   C2P 6344   5.036   3.289   3.335
   59POPC   CN1 6345   5.365   0.972   5.742
   59POPC   CN2 6346   5.562   0.908   5.619
   59POPC   CN3 6347   5.558   0.923   5.872
   59POPC   NTM 6348   5.512   0.986   5.740
   59POPC    CA 6349   5.553   1.139   5.742
   59POPC    CB 6350   5.709   1.151   5.748
   59POPC    OA 6351   5.765   1.087   5.633
   59POPC     P 6352   5.916   1.105   5.600
   59POPC    OB 6353   5.966   0.974   5.634
   59POPC    OC 6354   5.970   1.223   5.667
   59POPC    OD 6355   5.915   1.122   5.444
   59POPC    CC 6356   5.811   1.175   5.366
   59POPC    CD 6357   5.711   1.073   5.316
   59POPC    OE 6358   5.774   0.994   5.217
   59POPC   C1A 6359   5.713   0.879   5.189
   59POPC    OF 6360   5.615   0.831   5.246
   59POPC   C1B 6361   5.801   0.810   5.087
   59POPC   C1C 6362   5.745   0.679   5.023
   59POPC   C1D 6363   5.642   0.716   4.915
   59POPC   C1E 6364   5.608   0.604   4.819
   59POPC   C1F 6365   5.486   0.633   4.730
   59POPC   C1G 6366   5.485   0.522   4.620
   59POPC   C1H 6367   5.390   0.564   4.506
   59POPC   C1I 6368   5.383   0.435   4.423
   59POPC   C1J 6369   5.413   0.424   4.296
   59POPC   C1K 6370   5.471   0.523   4.203
   59POPC   C1L 6371   5.463   0.497   4.048
   59POPC   C1M 6372   5.315   0.516   4.009
   59POPC   C1N 6373   5.285   0.521   3.858
   59POPC   C1O 6374   5.360   0.420   3.765
   59POPC   C1P 6375   5.316   0.416   3.626
   59POPC   C1Q 6376   5.365   0.535   3.540
   59POPC   C1R 6377   5.294   0.537   3.399
   59POPC    CE 6378   5.582   1.134   5.275
   59POPC    OG 6379   5.598   1.226   5.165
   59POPC   C2A 6380   5.557   1.188   5.047
   59POPC    OH 6381   5.493   1.086   5.021
   59POPC   C2B 6382   5.597   1.289   4.943
   59POPC   C2C 6383   5.621   1.216   4.807
   59POPC   C2D 6384   5.683   1.304   4.702
   59POPC   C2E 6385   5.705   1.237   4.559
   59POPC   C2F 6386   5.763   1.327   4.446
   59POPC   C2G 6387   5.778   1.251   4.310
   59POPC   C2H 6388   5.853   1.336   4.206
   59POPC   C2I 6389   5.866   1.255   4.073
   59POPC   C2J 6390   5.960   1.324   3.974
   59POPC   C2K 6391   5.981   1.223   3.861
   59POPC   C2L 6392   6.062   1.284   3.746
   59POPC   C2M 6393   6.132   1.178   3.660
   59POPC   C2N 6394   6.178   1.241   3.531
   59POPC   C2O 6395   6.255   1.143   3.442
   59POPC   C2P 6396   6.309   1.210   3.316
   60POPC   CN1 6397   4.247   3.237   5.766
   60POPC   CN2 6398   4.079   3.331   5.621
   60POPC   CN3 6399   4.069   3.353   5.873
   60POPC   NTM 6400   4.102   3.261   5.755
   60POPC    CA 6401   4.022   3.126   5.773
   60POPC    CB 6402   3.868   3.155   5.769
   60POPC    OA 6403   3.836   3.215   5.642
   60POPC     P 6404   3.687   3.232   5.600
   60POPC    OB 6405   3.672   3.375   5.613
   60POPC    OC 6406   3.600   3.143   5.677
   60POPC    OD 6407   3.690   3.193   5.448
   60POPC    CC 6408   3.779   3.104   5.386
   60POPC    CD 6409   3.905   3.168   5.331
   60POPC    OE 6410   3.869   3.245   5.218
   60POPC   C1A 6411   3.960   3.335   5.181
   60POPC    OF 6412   4.065   3.364   5.239
   60POPC   C1B 6413   3.898   3.409   5.064
   60POPC   C1C 6414   3.990   3.511   4.988
   60POPC   C1D 6415   4.083   3.432   4.894
   60POPC   C1E 6416   4.150   3.517   4.788
   60POPC   C1F 6417   4.264   3.444   4.713
   60POPC   C1G 6418   4.299   3.534   4.590
   60POPC   C1H 6419   4.384   3.453   4.490
   60POPC   C1I 6420   4.429   3.562   4.392
   60POPC   C1J 6421   4.408   3.562   4.262
   60POPC   C1K 6422   4.330   3.469   4.179
   60POPC   C1L 6423   4.351   3.469   4.023
   60POPC   C1M 6424   4.490   3.407   3.999
   60POPC   C1N 6425   4.524   3.373   3.852
   60POPC   C1O 6426   4.482   3.475   3.741
   60POPC   C1P 6427   4.532   3.447   3.607
   60POPC   C1Q 6428   4.456   3.334   3.533
   60POPC   C1R 6429   4.530   3.293   3.400
   60POPC    CE 6430   4.014   3.071   5.309
   60POPC    OG 6431   3.979   2.971   5.210
   60POPC   C2A 6432   4.033   2.980   5.092
   60POPC    OH 6433   4.123   3.056   5.058
   60POPC   C2B 6434   3.972   2.879   4.999
   60POPC   C2C 6435   3.974   2.934   4.854
   60POPC   C2D 6436   3.895   2.851   4.756
   60POPC   C2E 6437   3.898   2.900   4.604
   60POPC   C2F 6438   3.822   2.813   4.500
   60POPC   C2G 6439   3.835   2.869   4.354
   60POPC   C2H 6440   3.743   2.793   4.257
   60POPC   C2I 6441   3.759   2.854   4.114
   60POPC   C2J 6442   3.653   2.799   4.017
   60POPC   C2K 6443   3.665   2.884   3.891
   60POPC   C2L 6444   3.575   2.830   3.779
   60POPC   C2M 6445   3.540   2.937   3.675
   60POPC   C2N 6446   3.484   2.870   3.552
   60POPC   C2O 6447   3.440   2.970   3.445
   60POPC   C2P 6448   3.376   2.902   3.325
   61POPC   CN1 6449   3.193   4.986   5.728
   61POPC   CN2 6450   3.139   5.196   5.620
   61POPC   CN3 6451   3.131   5.166   5.871
   61POPC   NTM 6452   3.102   5.103   5.735
   61POPC    CA 6453   2.951   5.054   5.735
   61POPC    CB 6454   2.856   5.178   5.751
   61POPC    OA 6455   2.878   5.268   5.641
   61POPC     P 6456   2.781   5.387   5.617
   61POPC    OB 6457   2.865   5.497   5.659
   61POPC    OC 6458   2.653   5.364   5.684
   61POPC    OD 6459   2.766   5.388   5.461
   61POPC    CC 6460   2.777   5.278   5.375
   61POPC    CD 6461   2.917   5.252   5.322
   61POPC    OE 6462   2.948   5.354   5.230
   61POPC   C1A 6463   3.078   5.367   5.202
   61POPC    OF 6464   3.172   5.307   5.254
   61POPC   C1B 6465   3.088   5.486   5.108
   61POPC   C1C 6466   3.227   5.514   5.044
   61POPC   C1D 6467   3.251   5.416   4.929
   61POPC   C1E 6468   3.362   5.454   4.835
   61POPC   C1F 6469   3.404   5.342   4.737
   61POPC   C1G 6470   3.496   5.409   4.630
   61POPC   C1H 6471   3.512   5.314   4.509
   61POPC   C1I 6472   3.623   5.384   4.430
   61POPC   C1J 6473   3.615   5.424   4.306
   61POPC   C1K 6474   3.500   5.426   4.214
   61POPC   C1L 6475   3.525   5.444   4.060
   61POPC   C1M 6476   3.589   5.313   4.011
   61POPC   C1N 6477   3.600   5.295   3.858
   61POPC   C1O 6478   3.643   5.419   3.773
   61POPC   C1P 6479   3.669   5.394   3.632
   61POPC   C1Q 6480   3.542   5.377   3.545
   61POPC   C1R 6481   3.578   5.326   3.400
   61POPC    CE 6482   2.935   5.114   5.271
   61POPC    OG 6483   2.849   5.086   5.160
   61POPC   C2A 6484   2.901   5.080   5.040
   61POPC    OH 6485   3.022   5.083   5.013
   61POPC   C2B 6486   2.794   5.067   4.936
   61POPC   C2C 6487   2.841   5.135   4.805
   61POPC   C2D 6488   2.733   5.147   4.701
   61POPC   C2E 6489   2.776   5.212   4.561
   61POPC   C2F 6490   2.668   5.220   4.450
   61POPC   C2G 6491   2.723   5.283   4.317
   61POPC   C2H 6492   2.610   5.308   4.216
   61POPC   C2I 6493   2.670   5.371   4.086
   61POPC   C2J 6494   2.560   5.421   3.991
   61POPC   C2K 6495   2.633   5.500   3.884
   61POPC   C2L 6496   2.536   5.543   3.772
   61POPC   C2M 6497   2.588   5.665   3.694
   61POPC   C2N 6498   2.508   5.679   3.567
   61POPC   C2O 6499   2.548   5.802   3.486
   61POPC   C2P 6500   2.462   5.821   3.361
   62POPC   CN1 6501   2.523   1.869   5.763
   62POPC   CN2 6502   2.609   1.692   5.623
   62POPC   CN3 6503   2.612   1.680   5.876
   62POPC   NTM 6504   2.631   1.769   5.753
   62POPC    CA 6505   2.772   1.839   5.765
   62POPC    CB 6506   2.886   1.731   5.763
   62POPC    OA 6507   2.878   1.658   5.640
   62POPC     P 6508   2.993   1.561   5.600
   62POPC    OB 6509   2.927   1.434   5.621
   62POPC    OC 6510   3.115   1.592   5.673
   62POPC    OD 6511   3.008   1.588   5.446
   62POPC    CC 6512   2.980   1.708   5.379
   62POPC    CD 6513   2.838   1.720   5.327
   62POPC    OE 6514   2.824   1.632   5.218
   62POPC   C1A 6515   2.698   1.603   5.184
   62POPC    OF 6516   2.595   1.639   5.243
   62POPC   C1B 6517   2.707   1.502   5.072
   62POPC   C1C 6518   2.574   1.463   5.001
   62POPC   C1D 6519   2.536   1.575   4.902
   62POPC   C1E 6520   2.432   1.536   4.800
   62POPC   C1F 6521   2.374   1.655   4.721
   62POPC   C1G 6522   2.293   1.593   4.602
   62POPC   C1H 6523   2.263   1.703   4.498
   62POPC   C1I 6524   2.164   1.631   4.405
   62POPC   C1J 6525   2.180   1.613   4.276
   62POPC   C1K 6526   2.293   1.645   4.189
   62POPC   C1L 6527   2.272   1.650   4.032
   62POPC   C1M 6528   2.188   1.776   4.004
   62POPC   C1N 6529   2.176   1.816   3.856
   62POPC   C1O 6530   2.153   1.703   3.750
   62POPC   C1P 6531   2.123   1.747   3.615
   62POPC   C1Q 6532   2.247   1.797   3.536
   62POPC   C1R 6533   2.204   1.865   3.400
   62POPC    CE 6534   2.799   1.861   5.299
   62POPC    OG 6535   2.880   1.920   5.196
   62POPC   C2A 6536   2.828   1.937   5.077
   62POPC    OH 6537   2.710   1.920   5.047
   62POPC   C2B 6538   2.932   1.984   4.980
   62POPC   C2C 6539   2.897   1.932   4.838
   62POPC   C2D 6540   3.006   1.955   4.737
   62POPC   C2E 6541   2.974   1.908   4.587
   62POPC   C2F 6542   3.082   1.935   4.480
   62POPC   C2G 6543   3.038   1.888   4.336
   62POPC   C2H 6544   3.154   1.898   4.236
   62POPC   C2I 6545   3.105   1.848   4.096
   62POPC   C2J 6546   3.222   1.833   3.997
   62POPC   C2K 6547   3.163   1.763   3.876
   62POPC   C2L 6548   3.265   1.753   3.762
   62POPC   C2M 6549   3.234   1.640   3.664
   62POPC   C2N 6550   3.315   1.660   3.538
   62POPC   C2O 6551   3.295   1.547   3.437
   62POPC   C2P 6552   3.384   1.563   3.314
   63POPC   CN1 6553   2.372   2.483   5.712
   63POPC   CN2 6554   2.435   2.277   5.603
   63POPC   CN3 6555   2.441   2.306   5.854
   63POPC   NTM 6556   2.468   2.371   5.719
   63POPC    CA 6557   2.616   2.426   5.719
   63POPC    CB 6558   2.717   2.307   5.734
   63POPC    OA 6559   2.698   2.216   5.624
   63POPC     P 6560   2.801   2.102   5.600
   63POPC    OB 6561   2.722   1.988   5.641
   63POPC    OC 6562   2.927   2.130   5.668
   63POPC    OD 6563   2.816   2.102   5.444
   63POPC    CC 6564   2.800   2.213   5.359
   63POPC    CD 6565   2.660   2.232   5.305
   63POPC    OE 6566   2.634   2.130   5.212
   63POPC   C1A 6567   2.505   2.111   5.183
   63POPC    OF 6568   2.408   2.167   5.236
   63POPC   C1B 6569   2.501   1.993   5.089
   63POPC   C1C 6570   2.362   1.959   5.025
   63POPC   C1D 6571   2.335   2.057   4.910
   63POPC   C1E 6572   2.225   2.015   4.815
   63POPC   C1F 6573   2.180   2.126   4.718
   63POPC   C1G 6574   2.090   2.055   4.611
   63POPC   C1H 6575   2.071   2.150   4.490
   63POPC   C1I 6576   1.963   2.076   4.410
   63POPC   C1J 6577   1.974   2.037   4.285
   63POPC   C1K 6578   2.089   2.041   4.194
   63POPC   C1L 6579   2.065   2.023   4.039
   63POPC   C1M 6580   1.996   2.152   3.991
   63POPC   C1N 6581   1.985   2.170   3.838
   63POPC   C1O 6582   1.947   2.044   3.752
   63POPC   C1P 6583   1.920   2.069   3.611
   63POPC   C1Q 6584   2.047   2.092   3.525
   63POPC   C1R 6585   2.010   2.142   3.381
   63POPC    CE 6586   2.636   2.370   5.255
   63POPC    OG 6587   2.722   2.403   5.144
   63POPC   C2A 6588   2.669   2.407   5.024
   63POPC    OH 6589   2.549   2.399   4.997
   63POPC   C2B 6590   2.776   2.426   4.921
   63POPC   C2C 6591   2.733   2.356   4.789
   63POPC   C2D 6592   2.842   2.350   4.685
   63POPC   C2E 6593   2.802   2.284   4.545
   63POPC   C2F 6594   2.911   2.282   4.435
   63POPC   C2G 6595   2.859   2.217   4.301
   63POPC   C2H 6596   2.973   2.198   4.200
   63POPC   C2I 6597   2.916   2.133   4.070
   63POPC   C2J 6598   3.028   2.089   3.975
   63POPC   C2K 6599   2.960   2.007   3.866
   63POPC   C2L 6600   3.058   1.969   3.755
   63POPC   C2M 6601   3.013   1.846   3.676
   63POPC   C2N 6602   3.093   1.836   3.548
   63POPC   C2O 6603   3.059   1.712   3.467
   63POPC   C2P 6604   3.146   1.698   3.342
   64POPC   CN1 6605   1.676   0.757   5.701
   64POPC   CN2 6606   1.463   0.774   5.588
   64POPC   CN3 6607   1.487   0.790   5.840
   64POPC   NTM 6608   1.534   0.720   5.712
   64POPC    CA 6609   1.519   0.564   5.734
   64POPC    CB 6610   1.368   0.527   5.754
   64POPC    OA 6611   1.294   0.568   5.638
   64POPC     P 6612   1.147   0.522   5.620
   64POPC    OB 6613   1.078   0.647   5.644
   64POPC    OC 6614   1.117   0.406   5.703
   64POPC    OD 6615   1.140   0.488   5.466
   64POPC    CC 6616   1.247   0.443   5.386
   64POPC    CD 6617   1.326   0.553   5.318
   64POPC    OE 6618   1.244   0.608   5.216
   64POPC   C1A 6619   1.283   0.727   5.171
   64POPC    OF 6620   1.376   0.797   5.215
   64POPC   C1B 6621   1.179   0.769   5.070
   64POPC   C1C 6622   1.208   0.899   4.988
   64POPC   C1D 6623   1.309   0.866   4.877
   64POPC   C1E 6624   1.318   0.970   4.767
   64POPC   C1F 6625   1.438   0.950   4.672
   64POPC   C1G 6626   1.413   1.046   4.551
   64POPC   C1H 6627   1.507   1.006   4.435
   64POPC   C1I 6628   1.487   1.124   4.338
   64POPC   C1J 6629   1.447   1.115   4.213
   64POPC   C1K 6630   1.401   0.998   4.137
   64POPC   C1L 6631   1.395   1.006   3.980
   64POPC   C1M 6632   1.541   1.007   3.931
   64POPC   C1N 6633   1.562   0.988   3.779
   64POPC   C1O 6634   1.465   1.064   3.682
   64POPC   C1P 6635   1.500   1.059   3.541
   64POPC   C1Q 6636   1.465   0.924   3.472
   64POPC   C1R 6637   1.527   0.917   3.327
   64POPC    CE 6638   1.460   0.509   5.273
   64POPC    OG 6639   1.452   0.403   5.175
   64POPC   C2A 6640   1.479   0.433   5.051
   64POPC    OH 6641   1.523   0.539   5.009
   64POPC   C2B 6642   1.449   0.315   4.962
   64POPC   C2C 6643   1.405   0.366   4.822
   64POPC   C2D 6644   1.353   0.258   4.732
   64POPC   C2E 6645   1.311   0.303   4.584
   64POPC   C2F 6646   1.261   0.192   4.488
   64POPC   C2G 6647   1.226   0.249   4.345
   64POPC   C2H 6648   1.159   0.141   4.258
   64POPC   C2I 6649   1.125   0.202   4.118
   64POPC   C2J 6650   1.037   0.109   4.035
   64POPC   C2K 6651   0.993   0.191   3.914
   64POPC   C2L 6652   0.915   0.105   3.813
   64POPC   C2M 6653   0.824   0.188   3.723
   64POPC   C2N 6654   0.781   0.103   3.605
   64POPC   C2O 6655   0.684   0.176   3.513
   64POPC   C2P 6656   0.633   0.088   3.400
   6.31000   6.34000  16.00000
