Built with Packmol
 6656
    1POPC   CN1    1   4.296   4.424   0.309
    1POPC   CN2    2   4.502   4.410   0.434
    1POPC   CN3    3   4.497   4.449   0.184
    1POPC   NTM    4   4.435   4.374   0.302
    1POPC    CA    5   4.435   4.219   0.268
    1POPC    CB    6   4.583   4.169   0.254
    1POPC    OA    7   4.652   4.192   0.377
    1POPC     P    8   4.793   4.130   0.400
    1POPC    OB    9   4.876   4.249   0.391
    1POPC    OC   10   4.816   4.018   0.309
    1POPC    OD   11   4.786   4.083   0.550
    1POPC    CC   12   4.671   4.043   0.619
    1POPC    CD   13   4.599   4.155   0.692
    1POPC    OE   14   4.678   4.193   0.803
    1POPC   C1A   15   4.648   4.312   0.855
    1POPC    OF   16   4.566   4.394   0.813
    1POPC   C1B   17   4.749   4.334   0.966
    1POPC   C1C   18   4.728   4.459   1.057
    1POPC   C1D   19   4.618   4.428   1.159
    1POPC   C1E   20   4.612   4.523   1.276
    1POPC   C1F   21   4.485   4.508   1.363
    1POPC   C1G   22   4.511   4.591   1.493
    1POPC   C1H   23   4.406   4.553   1.599
    1POPC   C1I   24   4.431   4.660   1.707
    1POPC   C1J   25   4.462   4.636   1.832
    1POPC   C1K   26   4.490   4.510   1.901
    1POPC   C1L   27   4.487   4.505   2.058
    1POPC   C1M   28   4.339   4.517   2.098
    1POPC   C1N   29   4.306   4.489   2.247
    1POPC   C1O   30   4.403   4.546   2.355
    1POPC   C1P   31   4.359   4.533   2.493
    1POPC   C1Q   32   4.376   4.390   2.552
    1POPC   C1R   33   4.304   4.378   2.692
    1POPC    CE   34   4.458   4.122   0.725
    1POPC    OG   35   4.449   4.008   0.814
    1POPC   C2A   36   4.417   4.030   0.939
    1POPC    OH   37   4.380   4.138   0.987
    1POPC   C2B   38   4.429   3.904   1.018
    1POPC   C2C   39   4.468   3.938   1.165
    1POPC   C2D   40   4.504   3.818   1.248
    1POPC   C2E   41   4.540   3.847   1.401
    1POPC   C2F   42   4.572   3.725   1.491
    1POPC   C2G   43   4.603   3.765   1.640
    1POPC   C2H   44   4.653   3.645   1.721
    1POPC   C2I   45   4.684   3.691   1.867
    1POPC   C2J   46   4.757   3.582   1.947
    1POPC   C2K   47   4.800   3.649   2.076
    1POPC   C2L   48   4.862   3.547   2.174
    1POPC   C2M   49   4.955   3.613   2.276
    1POPC   C2N   50   4.982   3.515   2.388
    1POPC   C2O   51   5.079   3.570   2.492
    1POPC   C2P   52   5.113   3.468   2.600
    2POPC   CN1   53   5.414   4.493   0.258
    2POPC   CN2   54   5.614   4.433   0.381
    2POPC   CN3   55   5.601   4.423   0.128
    2POPC   NTM   56   5.527   4.398   0.260
    2POPC    CA   57   5.474   4.249   0.258
    2POPC    CB   58   5.595   4.149   0.253
    2POPC    OA   59   5.678   4.171   0.368
    2POPC     P   60   5.792   4.070   0.401
    2POPC    OB   61   5.908   4.149   0.366
    2POPC    OC   62   5.769   3.942   0.334
    2POPC    OD   63   5.782   4.057   0.557
    2POPC    CC   64   5.666   4.073   0.635
    2POPC    CD   65   5.642   4.214   0.684
    2POPC    OE   66   5.738   4.243   0.783
    2POPC   C1A   67   5.754   4.372   0.811
    2POPC    OF   68   5.700   4.468   0.753
    2POPC   C1B   69   5.866   4.380   0.913
    2POPC   C1C   70   5.895   4.519   0.976
    2POPC   C1D   71   5.789   4.547   1.084
    2POPC   C1E   72   5.825   4.659   1.180
    2POPC   C1F   73   5.708   4.705   1.269
    2POPC   C1G   74   5.771   4.797   1.379
    2POPC   C1H   75   5.668   4.818   1.493
    2POPC   C1I   76   5.736   4.928   1.576
    2POPC   C1J   77   5.768   4.920   1.702
    2POPC   C1K   78   5.759   4.806   1.795
    2POPC   C1L   79   5.767   4.833   1.950
    2POPC   C1M   80   5.635   4.902   1.989
    2POPC   C1N   81   5.608   4.915   2.140
    2POPC   C1O   82   5.727   4.955   2.233
    2POPC   C1P   83   5.693   4.984   2.372
    2POPC   C1Q   84   5.666   4.858   2.458
    2POPC   C1R   85   5.607   4.898   2.599
    2POPC    CE   86   5.501   4.238   0.725
    2POPC    OG   87   5.462   4.153   0.836
    2POPC   C2A   88   5.451   4.208   0.954
    2POPC    OH   89   5.456   4.328   0.980
    2POPC   C2B   90   5.426   4.102   1.058
    2POPC   C2C   91   5.487   4.149   1.194
    2POPC   C2D   92   5.488   4.042   1.299
    2POPC   C2E   93   5.544   4.085   1.442
    2POPC   C2F   94   5.542   3.978   1.555
    2POPC   C2G   95   5.597   4.033   1.691
    2POPC   C2H   96   5.611   3.920   1.795
    2POPC   C2I   97   5.667   3.980   1.928
    2POPC   C2J   98   5.706   3.870   2.028
    2POPC   C2K   99   5.780   3.941   2.140
    2POPC   C2L  100   5.813   3.845   2.255
    2POPC   C2M  101   5.931   3.893   2.341
    2POPC   C2N  102   5.933   3.815   2.470
    2POPC   C2O  103   6.052   3.852   2.559
    2POPC   C2P  104   6.059   3.767   2.685
    3POPC   CN1  105   3.365   3.365   0.303
    3POPC   CN2  106   3.580   3.320   0.402
    3POPC   CN3  107   3.540   3.307   0.153
    3POPC   NTM  108   3.484   3.278   0.292
    3POPC    CA  109   3.441   3.125   0.296
    3POPC    CB  110   3.567   3.034   0.276
    3POPC    OA  111   3.661   3.062   0.382
    3POPC     P  112   3.784   2.969   0.401
    3POPC    OB  113   3.889   3.056   0.354
    3POPC    OC  114   3.763   2.839   0.337
    3POPC    OD  115   3.793   2.957   0.558
    3POPC    CC  116   3.686   2.965   0.648
    3POPC    CD  117   3.657   3.105   0.700
    3POPC    OE  118   3.762   3.140   0.788
    3POPC   C1A  119   3.772   3.270   0.814
    3POPC    OF  120   3.706   3.362   0.763
    3POPC   C1B  121   3.894   3.286   0.902
    3POPC   C1C  122   3.920   3.427   0.962
    3POPC   C1D  123   3.825   3.449   1.082
    3POPC   C1E  124   3.864   3.563   1.173
    3POPC   C1F  125   3.755   3.602   1.275
    3POPC   C1G  126   3.823   3.698   1.377
    3POPC   C1H  127   3.733   3.712   1.502
    3POPC   C1I  128   3.802   3.827   1.577
    3POPC   C1J  129   3.849   3.822   1.700
    3POPC   C1K  130   3.858   3.709   1.792
    3POPC   C1L  131   3.881   3.736   1.946
    3POPC   C1M  132   3.750   3.796   1.999
    3POPC   C1N  133   3.739   3.808   2.153
    3POPC   C1O  134   3.865   3.857   2.232
    3POPC   C1P  135   3.845   3.884   2.373
    3POPC   C1Q  136   3.837   3.757   2.462
    3POPC   C1R  137   3.791   3.794   2.609
    3POPC    CE  138   3.521   3.118   0.757
    3POPC    OG  139   3.500   3.032   0.871
    3POPC   C2A  140   3.498   3.086   0.990
    3POPC    OH  141   3.498   3.207   1.015
    3POPC   C2B  142   3.493   2.980   1.095
    3POPC   C2C  143   3.566   3.031   1.224
    3POPC   C2D  144   3.585   2.925   1.328
    3POPC   C2E  145   3.655   2.972   1.464
    3POPC   C2F  146   3.671   2.866   1.576
    3POPC   C2G  147   3.738   2.925   1.706
    3POPC   C2H  148   3.771   2.815   1.806
    3POPC   C2I  149   3.838   2.878   1.933
    3POPC   C2J  150   3.895   2.772   2.027
    3POPC   C2K  151   3.976   2.849   2.130
    3POPC   C2L  152   4.028   2.756   2.241
    3POPC   C2M  153   4.151   2.812   2.313
    3POPC   C2N  154   4.173   2.735   2.441
    3POPC   C2O  155   4.299   2.780   2.516
    3POPC   C2P  156   4.325   2.696   2.640
    4POPC   CN1  157   3.969   3.230   0.247
    4POPC   CN2  158   4.166   3.184   0.378
    4POPC   CN3  159   4.166   3.176   0.125
    4POPC   NTM  160   4.089   3.144   0.253
    4POPC    CA  161   4.046   2.991   0.248
    4POPC    CB  162   4.175   2.901   0.247
    4POPC    OA  163   4.250   2.927   0.366
    4POPC     P  164   4.370   2.834   0.403
    4POPC    OB  165   4.481   2.922   0.374
    4POPC    OC  166   4.360   2.706   0.334
    4POPC    OD  167   4.354   2.819   0.559
    4POPC    CC  168   4.234   2.826   0.631
    4POPC    CD  169   4.197   2.964   0.681
    4POPC    OE  170   4.286   2.999   0.784
    4POPC   C1A  171   4.291   3.128   0.814
    4POPC    OF  172   4.233   3.220   0.755
    4POPC   C1B  173   4.397   3.142   0.921
    4POPC   C1C  174   4.412   3.283   0.987
    4POPC   C1D  175   4.300   3.302   1.090
    4POPC   C1E  176   4.323   3.415   1.188
    4POPC   C1F  177   4.199   3.451   1.272
    4POPC   C1G  178   4.250   3.546   1.386
    4POPC   C1H  179   4.141   3.557   1.495
    4POPC   C1I  180   4.196   3.671   1.582
    4POPC   C1J  181   4.223   3.664   1.710
    4POPC   C1K  182   4.218   3.549   1.801
    4POPC   C1L  183   4.217   3.574   1.957
    4POPC   C1M  184   4.079   3.632   1.990
    4POPC   C1N  185   4.043   3.642   2.140
    4POPC   C1O  186   4.155   3.690   2.239
    4POPC   C1P  187   4.113   3.714   2.376
    4POPC   C1Q  188   4.091   3.586   2.460
    4POPC   C1R  189   4.023   3.619   2.598
    4POPC    CE  190   4.053   2.976   0.715
    4POPC    OG  191   4.015   2.888   0.823
    4POPC   C2A  192   3.994   2.940   0.941
    4POPC    OH  193   3.989   3.060   0.968
    4POPC   C2B  194   3.973   2.832   1.043
    4POPC   C2C  195   4.024   2.881   1.182
    4POPC   C2D  196   4.028   2.773   1.286
    4POPC   C2E  197   4.074   2.818   1.432
    4POPC   C2F  198   4.074   2.710   1.543
    4POPC   C2G  199   4.119   2.767   1.683
    4POPC   C2H  200   4.136   2.655   1.786
    4POPC   C2I  201   4.182   2.716   1.922
    4POPC   C2J  202   4.225   2.608   2.022
    4POPC   C2K  203   4.288   2.684   2.138
    4POPC   C2L  204   4.322   2.589   2.254
    4POPC   C2M  205   4.432   2.644   2.346
    4POPC   C2N  206   4.434   2.565   2.474
    4POPC   C2O  207   4.545   2.609   2.569
    4POPC   C2P  208   4.553   2.523   2.694
    5POPC   CN1  209   6.001   2.357   0.329
    5POPC   CN2  210   5.775   2.357   0.414
    5POPC   CN3  211   5.828   2.381   0.168
    5POPC   NTM  212   5.868   2.419   0.310
    5POPC    CA  213   5.880   2.577   0.318
    5POPC    CB  214   5.740   2.641   0.290
    5POPC    OA  215   5.647   2.594   0.389
    5POPC     P  216   5.507   2.661   0.400
    5POPC    OB  217   5.424   2.555   0.346
    5POPC    OC  218   5.506   2.793   0.338
    5POPC    OD  219   5.486   2.668   0.556
    5POPC    CC  220   5.586   2.680   0.653
    5POPC    CD  221   5.638   2.548   0.707
    5POPC    OE  222   5.537   2.490   0.787
    5POPC   C1A  223   5.552   2.360   0.812
    5POPC    OF  224   5.638   2.285   0.765
    5POPC   C1B  225   5.430   2.320   0.892
    5POPC   C1C  226   5.429   2.175   0.950
    5POPC   C1D  227   5.518   2.171   1.075
    5POPC   C1E  228   5.497   2.049   1.163
    5POPC   C1F  229   5.605   2.031   1.272
    5POPC   C1G  230   5.550   1.921   1.369
    5POPC   C1H  231   5.633   1.924   1.500
    5POPC   C1I  232   5.584   1.796   1.569
    5POPC   C1J  233   5.530   1.790   1.689
    5POPC   C1K  234   5.492   1.897   1.781
    5POPC   C1L  235   5.465   1.863   1.932
    5POPC   C1M  236   5.602   1.829   1.994
    5POPC   C1N  237   5.605   1.817   2.148
    5POPC   C1O  238   5.486   1.743   2.218
    5POPC   C1P  239   5.503   1.718   2.361
    5POPC   C1Q  240   5.480   1.842   2.451
    5POPC   C1R  241   5.523   1.814   2.600
    5POPC    CE  242   5.771   2.560   0.772
    5POPC    OG  243   5.766   2.647   0.888
    5POPC   C2A  244   5.772   2.592   1.006
    5POPC    OH  245   5.794   2.473   1.031
    5POPC   C2B  246   5.749   2.695   1.112
    5POPC   C2C  247   5.680   2.629   1.235
    5POPC   C2D  248   5.633   2.727   1.339
    5POPC   C2E  249   5.566   2.665   1.469
    5POPC   C2F  250   5.521   2.764   1.580
    5POPC   C2G  251   5.459   2.690   1.705
    5POPC   C2H  252   5.399   2.791   1.804
    5POPC   C2I  253   5.338   2.713   1.926
    5POPC   C2J  254   5.255   2.804   2.016
    5POPC   C2K  255   5.184   2.711   2.114
    5POPC   C2L  256   5.108   2.790   2.221
    5POPC   C2M  257   4.994   2.710   2.284
    5POPC   C2N  258   4.949   2.779   2.411
    5POPC   C2O  259   4.831   2.708   2.477
    5POPC   C2P  260   4.780   2.783   2.600
    6POPC   CN1  261   5.293   4.059   0.340
    6POPC   CN2  262   5.492   3.961   0.434
    6POPC   CN3  263   5.454   3.981   0.185
    6POPC   NTM  264   5.391   3.950   0.321
    6POPC    CA  265   5.317   3.811   0.310
    6POPC    CB  266   5.422   3.698   0.282
    6POPC    OA  267   5.518   3.695   0.389
    6POPC     P  268   5.619   3.577   0.399
    6POPC    OB  269   5.741   3.644   0.360
    6POPC    OC  270   5.572   3.461   0.323
    6POPC    OD  271   5.622   3.549   0.553
    6POPC    CC  272   5.517   3.570   0.645
    6POPC    CD  273   5.518   3.707   0.710
    6POPC    OE  274   5.626   3.712   0.800
    6POPC   C1A  275   5.662   3.834   0.839
    6POPC    OF  276   5.618   3.942   0.797
    6POPC   C1B  277   5.783   3.815   0.928
    6POPC   C1C  278   5.837   3.942   1.001
    6POPC   C1D  279   5.747   3.971   1.122
    6POPC   C1E  280   5.807   4.066   1.224
    6POPC   C1F  281   5.707   4.117   1.329
    6POPC   C1G  282   5.792   4.187   1.440
    6POPC   C1H  283   5.704   4.207   1.566
    6POPC   C1I  284   5.795   4.298   1.652
    6POPC   C1J  285   5.837   4.272   1.773
    6POPC   C1K  286   5.821   4.151   1.854
    6POPC   C1L  287   5.847   4.158   2.010
    6POPC   C1M  288   5.730   4.239   2.069
    6POPC   C1N  289   5.719   4.239   2.223
    6POPC   C1O  290   5.851   4.252   2.306
    6POPC   C1P  291   5.835   4.270   2.450
    6POPC   C1Q  292   5.799   4.140   2.526
    6POPC   C1R  293   5.759   4.171   2.675
    6POPC    CE  294   5.386   3.744   0.768
    6POPC    OG  295   5.346   3.654   0.873
    6POPC   C2A  296   5.354   3.695   0.997
    6POPC    OH  297   5.378   3.811   1.033
    6POPC   C2B  298   5.325   3.583   1.092
    6POPC   C2C  299   5.404   3.605   1.224
    6POPC   C2D  300   5.399   3.488   1.318
    6POPC   C2E  301   5.475   3.507   1.458
    6POPC   C2F  302   5.467   3.390   1.559
    6POPC   C2G  303   5.542   3.421   1.693
    6POPC   C2H  304   5.550   3.297   1.783
    6POPC   C2I  305   5.626   3.333   1.915
    6POPC   C2J  306   5.659   3.209   1.998
    6POPC   C2K  307   5.752   3.257   2.108
    6POPC   C2L  308   5.782   3.145   2.209
    6POPC   C2M  309   5.912   3.168   2.286
    6POPC   C2N  310   5.916   3.076   2.405
    6POPC   C2O  311   6.047   3.087   2.484
    6POPC   C2P  312   6.053   2.988   2.600
    7POPC   CN1  313   4.563   2.674   0.223
    7POPC   CN2  314   4.764   2.672   0.357
    7POPC   CN3  315   4.769   2.689   0.104
    7POPC   NTM  316   4.702   2.624   0.226
    7POPC    CA  317   4.705   2.467   0.205
    7POPC    CB  318   4.854   2.417   0.201
    7POPC    OA  319   4.918   2.451   0.325
    7POPC     P  320   5.058   2.392   0.358
    7POPC    OB  321   5.140   2.510   0.341
    7POPC    OC  322   5.085   2.274   0.277
    7POPC    OD  323   5.045   2.358   0.511
    7POPC    CC  324   4.928   2.324   0.579
    7POPC    CD  325   4.852   2.441   0.639
    7POPC    OE  326   4.927   2.489   0.749
    7POPC   C1A  327   4.895   2.611   0.790
    7POPC    OF  328   4.814   2.689   0.738
    7POPC   C1B  329   4.991   2.644   0.902
    7POPC   C1C  330   4.966   2.776   0.981
    7POPC   C1D  331   4.852   2.753   1.081
    7POPC   C1E  332   4.841   2.858   1.190
    7POPC   C1F  333   4.711   2.849   1.272
    7POPC   C1G  334   4.732   2.943   1.395
    7POPC   C1H  335   4.623   2.913   1.501
    7POPC   C1I  336   4.643   3.029   1.600
    7POPC   C1J  337   4.669   3.017   1.728
    7POPC   C1K  338   4.696   2.897   1.808
    7POPC   C1L  339   4.686   2.905   1.965
    7POPC   C1M  340   4.537   2.920   1.998
    7POPC   C1N  341   4.498   2.904   2.147
    7POPC   C1O  342   4.591   2.971   2.253
    7POPC   C1P  343   4.542   2.970   2.391
    7POPC   C1Q  344   4.557   2.833   2.462
    7POPC   C1R  345   4.480   2.832   2.600
    7POPC    CE  346   4.710   2.409   0.670
    7POPC    OG  347   4.698   2.304   0.767
    7POPC   C2A  348   4.662   2.336   0.889
    7POPC    OH  349   4.623   2.447   0.926
    7POPC   C2B  350   4.671   2.217   0.979
    7POPC   C2C  351   4.705   2.264   1.124
    7POPC   C2D  352   4.738   2.152   1.218
    7POPC   C2E  353   4.768   2.194   1.369
    7POPC   C2F  354   4.797   2.080   1.470
    7POPC   C2G  355   4.823   2.134   1.616
    7POPC   C2H  356   4.870   2.021   1.709
    7POPC   C2I  357   4.894   2.080   1.852
    7POPC   C2J  358   4.965   1.979   1.944
    7POPC   C2K  359   5.003   2.057   2.068
    7POPC   C2L  360   5.061   1.965   2.176
    7POPC   C2M  361   5.150   2.040   2.276
    7POPC   C2N  362   5.173   1.952   2.397
    7POPC   C2O  363   5.266   2.017   2.500
    7POPC   C2P  364   5.296   1.924   2.617
    8POPC   CN1  365   1.449   4.573   0.236
    8POPC   CN2  366   1.619   4.651   0.388
    8POPC   CN3  367   1.628   4.695   0.139
    8POPC   NTM  368   1.595   4.594   0.249
    8POPC    CA  369   1.673   4.460   0.217
    8POPC    CB  370   1.827   4.486   0.224
    8POPC    OA  371   1.861   4.533   0.355
    8POPC     P  372   2.010   4.543   0.397
    8POPC    OB  373   2.027   4.687   0.397
    8POPC    OC  374   2.095   4.460   0.311
    8POPC    OD  375   2.008   4.491   0.545
    8POPC    CC  376   1.917   4.398   0.600
    8POPC    CD  377   1.793   4.459   0.661
    8POPC    OE  378   1.830   4.524   0.780
    8POPC   C1A  379   1.741   4.612   0.826
    8POPC    OF  380   1.636   4.648   0.772
    8POPC   C1B  381   1.805   4.674   0.949
    8POPC   C1C  382   1.716   4.769   1.034
    8POPC   C1D  383   1.622   4.684   1.122
    8POPC   C1E  384   1.557   4.759   1.236
    8POPC   C1F  385   1.442   4.682   1.304
    8POPC   C1G  386   1.410   4.761   1.436
    8POPC   C1H  387   1.323   4.672   1.528
    8POPC   C1I  388   1.281   4.772   1.636
    8POPC   C1J  389   1.303   4.760   1.765
    8POPC   C1K  390   1.380   4.659   1.838
    8POPC   C1L  391   1.359   4.644   1.994
    8POPC   C1M  392   1.220   4.583   2.013
    8POPC   C1N  393   1.186   4.536   2.157
    8POPC   C1O  394   1.230   4.627   2.276
    8POPC   C1P  395   1.181   4.587   2.408
    8POPC   C1Q  396   1.255   4.466   2.470
    8POPC   C1R  397   1.181   4.415   2.600
    8POPC    CE  398   1.681   4.361   0.675
    8POPC    OG  399   1.716   4.253   0.763
    8POPC   C2A  400   1.663   4.251   0.882
    8POPC    OH  401   1.574   4.326   0.924
    8POPC   C2B  402   1.722   4.141   0.965
    8POPC   C2C  403   1.722   4.182   1.115
    8POPC   C2D  404   1.800   4.089   1.204
    8POPC   C2E  405   1.799   4.124   1.359
    8POPC   C2F  406   1.873   4.026   1.454
    8POPC   C2G  407   1.863   4.069   1.605
    8POPC   C2H  408   1.954   3.983   1.694
    8POPC   C2I  409   1.940   4.030   1.842
    8POPC   C2J  410   2.045   3.965   1.933
    8POPC   C2K  411   2.035   4.038   2.066
    8POPC   C2L  412   2.125   3.972   2.172
    8POPC   C2M  413   2.162   4.069   2.285
    8POPC   C2N  414   2.218   3.989   2.401
    8POPC   C2O  415   2.264   4.079   2.516
    8POPC   C2P  416   2.329   3.999   2.629
    9POPC   CN1  417   1.717   0.904   0.283
    9POPC   CN2  418   1.500   0.895   0.389
    9POPC   CN3  419   1.530   0.902   0.138
    9POPC   NTM  420   1.579   0.955   0.273
    9POPC    CA  421   1.579   1.113   0.267
    9POPC    CB  422   1.432   1.165   0.248
    9POPC    OA  423   1.352   1.119   0.359
    9POPC     P  424   1.208   1.176   0.378
    9POPC    OB  425   1.130   1.061   0.340
    9POPC    OC  426   1.192   1.302   0.307
    9POPC    OD  427   1.201   1.195   0.534
    9POPC    CC  428   1.308   1.222   0.621
    9POPC    CD  429   1.375   1.099   0.679
    9POPC    OE  430   1.286   1.041   0.772
    9POPC   C1A  431   1.313   0.915   0.805
    9POPC    OF  432   1.400   0.842   0.757
    9POPC   C1B  433   1.203   0.872   0.899
    9POPC   C1C  434   1.218   0.733   0.968
    9POPC   C1D  435   1.317   0.745   1.084
    9POPC   C1E  436   1.314   0.630   1.183
    9POPC   C1F  437   1.432   0.629   1.282
    9POPC   C1G  438   1.395   0.524   1.391
    9POPC   C1H  439   1.489   0.543   1.513
    9POPC   C1I  440   1.456   0.418   1.597
    9POPC   C1J  441   1.413   0.418   1.721
    9POPC   C1K  442   1.376   0.530   1.808
    9POPC   C1L  443   1.364   0.507   1.963
    9POPC   C1M  444   1.508   0.488   2.014
    9POPC   C1N  445   1.526   0.488   2.168
    9POPC   C1O  446   1.420   0.412   2.254
    9POPC   C1P  447   1.451   0.400   2.396
    9POPC   C1Q  448   1.426   0.529   2.478
    9POPC   C1R  449   1.484   0.516   2.624
    9POPC    CE  450   1.511   1.126   0.730
    9POPC    OG  451   1.510   1.221   0.839
    9POPC   C2A  452   1.530   1.177   0.960
    9POPC    OH  453   1.564   1.062   0.991
    9POPC   C2B  454   1.509   1.287   1.060
    9POPC   C2C  455   1.456   1.226   1.193
    9POPC   C2D  456   1.411   1.329   1.293
    9POPC   C2E  457   1.361   1.273   1.434
    9POPC   C2F  458   1.318   1.377   1.541
    9POPC   C2G  459   1.274   1.310   1.676
    9POPC   C2H  460   1.214   1.413   1.772
    9POPC   C2I  461   1.171   1.341   1.904
    9POPC   C2J  462   1.089   1.433   1.995
    9POPC   C2K  463   1.035   1.344   2.105
    9POPC   C2L  464   0.962   1.426   2.213
    9POPC   C2M  465   0.861   1.343   2.293
    9POPC   C2N  466   0.822   1.419   2.417
    9POPC   C2O  467   0.716   1.345   2.500
    9POPC   C2P  468   0.670   1.426   2.621
   10POPC   CN1  469   0.734   5.798   0.329
   10POPC   CN2  470   0.854   5.976   0.439
   10POPC   CN3  471   0.820   5.969   0.188
   10POPC   NTM  472   0.850   5.888   0.315
   10POPC    CA  473   0.982   5.804   0.289
   10POPC    CB  474   1.103   5.901   0.266
   10POPC    OA  475   1.119   5.983   0.383
   10POPC     P  476   1.246   6.072   0.398
   10POPC    OB  477   1.189   6.203   0.376
   10POPC    OC  478   1.354   6.024   0.311
   10POPC    OD  479   1.281   6.055   0.550
   10POPC    CC  480   1.254   5.943   0.631
   10POPC    CD  481   1.120   5.948   0.702
   10POPC    OE  482   1.130   6.045   0.804
   10POPC   C1A  483   1.013   6.087   0.853
   10POPC    OF  484   0.900   6.057   0.812
   10POPC   C1B  485   1.046   6.195   0.953
   10POPC   C1C  486   0.928   6.251   1.039
   10POPC   C1D  487   0.896   6.151   1.151
   10POPC   C1E  488   0.811   6.207   1.263
   10POPC   C1F  489   0.756   6.100   1.359
   10POPC   C1G  490   0.699   6.177   1.482
   10POPC   C1H  491   0.676   6.078   1.599
   10POPC   C1I  492   0.598   6.166   1.698
   10POPC   C1J  493   0.633   6.191   1.822
   10POPC   C1K  494   0.755   6.155   1.895
   10POPC   C1L  495   0.756   6.164   2.052
   10POPC   C1M  496   0.668   6.049   2.102
   10POPC   C1N  497   0.673   6.021   2.254
   10POPC   C1O  498   0.675   6.143   2.351
   10POPC   C1P  499   0.663   6.112   2.493
   10POPC   C1Q  500   0.792   6.056   2.558
   10POPC   C1R  501   0.763   6.002   2.704
   10POPC    CE  502   1.074   5.814   0.748
   10POPC    OG  503   1.165   5.755   0.843
   10POPC   C2A  504   1.129   5.752   0.969
   10POPC    OH  505   1.018   5.781   1.013
   10POPC   C2B  506   1.242   5.702   1.054
   10POPC   C2C  507   1.232   5.767   1.195
   10POPC   C2D  508   1.352   5.742   1.281
   10POPC   C2E  509   1.347   5.802   1.429
   10POPC   C2F  510   1.467   5.773   1.523
   10POPC   C2G  511   1.448   5.835   1.666
   10POPC   C2H  512   1.576   5.821   1.750
   10POPC   C2I  513   1.552   5.885   1.891
   10POPC   C2J  514   1.683   5.897   1.971
   10POPC   C2K  515   1.648   5.981   2.092
   10POPC   C2L  516   1.766   5.989   2.190
   10POPC   C2M  517   1.759   6.111   2.282
   10POPC   C2N  518   1.856   6.093   2.397
   10POPC   C2O  519   1.860   6.214   2.490
   10POPC   C2P  520   1.964   6.199   2.600
   11POPC   CN1  521   1.515   3.491   0.234
   11POPC   CN2  522   1.344   3.403   0.379
   11POPC   CN3  523   1.332   3.385   0.127
   11POPC   NTM  524   1.370   3.473   0.246
   11POPC    CA  525   1.296   3.612   0.229
   11POPC    CB  526   1.140   3.590   0.234
   11POPC    OA  527   1.106   3.532   0.360
   11POPC     P  528   0.956   3.522   0.402
   11POPC    OB  529   0.935   3.379   0.388
   11POPC    OC  530   0.874   3.615   0.326
   11POPC    OD  531   0.962   3.559   0.555
   11POPC    CC  532   1.056   3.643   0.618
   11POPC    CD  533   1.179   3.572   0.671
   11POPC    OE  534   1.140   3.496   0.784
   11POPC   C1A  535   1.226   3.402   0.820
   11POPC    OF  536   1.329   3.368   0.761
   11POPC   C1B  537   1.161   3.330   0.936
   11POPC   C1C  538   1.247   3.223   1.011
   11POPC   C1D  539   1.345   3.296   1.105
   11POPC   C1E  540   1.408   3.208   1.211
   11POPC   C1F  541   1.526   3.274   1.286
   11POPC   C1G  542   1.556   3.181   1.408
   11POPC   C1H  543   1.646   3.258   1.508
   11POPC   C1I  544   1.686   3.145   1.605
   11POPC   C1J  545   1.665   3.145   1.735
   11POPC   C1K  546   1.592   3.241   1.819
   11POPC   C1L  547   1.614   3.239   1.975
   11POPC   C1M  548   1.756   3.293   1.999
   11POPC   C1N  549   1.792   3.325   2.146
   11POPC   C1O  550   1.745   3.224   2.256
   11POPC   C1P  551   1.797   3.249   2.390
   11POPC   C1Q  552   1.727   3.365   2.465
   11POPC   C1R  553   1.803   3.401   2.599
   11POPC    CE  554   1.293   3.664   0.694
   11POPC    OG  555   1.263   3.764   0.793
   11POPC   C2A  556   1.317   3.752   0.911
   11POPC    OH  557   1.403   3.671   0.944
   11POPC   C2B  558   1.261   3.855   1.005
   11POPC   C2C  559   1.260   3.799   1.150
   11POPC   C2D  560   1.187   3.885   1.248
   11POPC   C2E  561   1.187   3.835   1.400
   11POPC   C2F  562   1.117   3.924   1.505
   11POPC   C2G  563   1.126   3.866   1.651
   11POPC   C2H  564   1.039   3.946   1.749
   11POPC   C2I  565   1.052   3.883   1.891
   11POPC   C2J  566   0.950   3.943   1.989
   11POPC   C2K  567   0.958   3.856   2.114
   11POPC   C2L  568   0.871   3.913   2.227
   11POPC   C2M  569   0.832   3.807   2.330
   11POPC   C2N  570   0.779   3.876   2.454
   11POPC   C2O  571   0.731   3.777   2.560
   11POPC   C2P  572   0.670   3.847   2.681
   12POPC   CN1  573   0.352   1.732   0.273
   12POPC   CN2  574   0.224   1.895   0.397
   12POPC   CN3  575   0.211   1.875   0.146
   12POPC   NTM  576   0.302   1.871   0.268
   12POPC    CA  577   0.422   1.971   0.243
   12POPC    CB  578   0.367   2.117   0.230
   12POPC    OA  579   0.298   2.152   0.352
   12POPC     P  580   0.255   2.299   0.377
   12POPC    OB  581   0.112   2.287   0.360
   12POPC    OC  582   0.330   2.391   0.292
   12POPC    OD  583   0.288   2.319   0.529
   12POPC    CC  584   0.388   2.254   0.602
   12POPC    CD  585   0.345   2.125   0.669
   12POPC    OE  586   0.259   2.158   0.776
   12POPC   C1A  587   0.184   2.058   0.822
   12POPC    OF  588   0.176   1.944   0.775
   12POPC   C1B  589   0.097   2.118   0.930
   12POPC   C1C  590   0.010   2.019   1.013
   12POPC   C1D  591   0.099   1.951   1.118
   12POPC   C1E  592   0.024   1.882   1.230
   12POPC   C1F  593   0.112   1.791   1.318
   12POPC   C1G  594   0.025   1.755   1.443
   12POPC   C1H  595   0.116   1.695   1.553
   12POPC   C1I  596   0.012   1.643   1.654
   12POPC   C1J  597   0.004   1.678   1.780
   12POPC   C1K  598   0.079   1.778   1.855
   12POPC   C1L  599   0.077   1.774   2.013
   12POPC   C1M  600   0.161   1.652   2.053
   12POPC   C1N  601   0.195   1.640   2.204
   12POPC   C1O  602   0.083   1.675   2.307
   12POPC   C1P  603   0.115   1.645   2.447
   12POPC   C1Q  604   0.210   1.747   2.513
   12POPC   C1R  605   0.258   1.695   2.655
   12POPC    CE  606   0.459   2.037   0.705
   12POPC    OG  607   0.547   2.099   0.801
   12POPC   C2A  608   0.544   2.057   0.924
   12POPC    OH  609   0.482   1.959   0.966
   12POPC   C2B  610   0.629   2.145   1.011
   12POPC   C2C  611   0.570   2.148   1.155
   12POPC   C2D  612   0.635   2.250   1.245
   12POPC   C2E  613   0.582   2.255   1.395
   12POPC   C2F  614   0.651   2.355   1.492
   12POPC   C2G  615   0.592   2.349   1.638
   12POPC   C2H  616   0.648   2.461   1.725
   12POPC   C2I  617   0.586   2.451   1.868
   12POPC   C2J  618   0.618   2.574   1.954
   12POPC   C2K  619   0.532   2.561   2.078
   12POPC   C2L  620   0.566   2.670   2.181
   12POPC   C2M  621   0.451   2.697   2.279
   12POPC   C2N  622   0.503   2.777   2.396
   12POPC   C2O  623   0.393   2.813   2.495
   12POPC   C2P  624   0.444   2.901   2.609
   13POPC   CN1  625   1.304   2.134   0.278
   13POPC   CN2  626   1.191   2.307   0.403
   13POPC   CN3  627   1.179   2.290   0.150
   13POPC   NTM  628   1.268   2.277   0.274
   13POPC    CA  629   1.396   2.366   0.251
   13POPC    CB  630   1.355   2.517   0.240
   13POPC    OA  631   1.288   2.556   0.361
   13POPC     P  632   1.258   2.707   0.387
   13POPC    OB  633   1.115   2.708   0.368
   13POPC    OC  634   1.343   2.792   0.304
   13POPC    OD  635   1.291   2.722   0.540
   13POPC    CC  636   1.385   2.647   0.613
   13POPC    CD  637   1.329   2.522   0.678
   13POPC    OE  638   1.245   2.562   0.785
   13POPC   C1A  639   1.161   2.468   0.829
   13POPC    OF  640   1.143   2.356   0.781
   13POPC   C1B  641   1.078   2.535   0.936
   13POPC   C1C  642   0.982   2.443   1.018
   13POPC   C1D  643   1.063   2.366   1.123
   13POPC   C1E  644   0.981   2.303   1.233
   13POPC   C1F  645   1.059   2.204   1.321
   13POPC   C1G  646   0.968   2.174   1.444
   13POPC   C1H  647   1.052   2.105   1.554
   13POPC   C1I  648   0.943   2.061   1.653
   13POPC   C1J  649   0.937   2.095   1.780
   13POPC   C1K  650   1.020   2.188   1.857
   13POPC   C1L  651   1.016   2.182   2.015
   13POPC   C1M  652   1.087   2.052   2.055
   13POPC   C1N  653   1.119   2.036   2.205
   13POPC   C1O  654   1.010   2.079   2.308
   13POPC   C1P  655   1.036   2.046   2.447
   13POPC   C1Q  656   1.140   2.137   2.516
   13POPC   C1R  657   1.182   2.080   2.658
   13POPC    CE  658   1.434   2.424   0.714
   13POPC    OG  659   1.526   2.477   0.811
   13POPC   C2A  660   1.518   2.434   0.935
   13POPC    OH  661   1.447   2.341   0.975
   13POPC   C2B  662   1.610   2.512   1.023
   13POPC   C2C  663   1.549   2.520   1.167
   13POPC   C2D  664   1.623   2.614   1.258
   13POPC   C2E  665   1.568   2.622   1.408
   13POPC   C2F  666   1.645   2.714   1.507
   13POPC   C2G  667   1.584   2.712   1.652
   13POPC   C2H  668   1.649   2.818   1.741
   13POPC   C2I  669   1.585   2.812   1.883
   13POPC   C2J  670   1.627   2.931   1.971
   13POPC   C2K  671   1.539   2.924   2.094
   13POPC   C2L  672   1.581   3.029   2.199
   13POPC   C2M  673   1.468   3.064   2.295
   13POPC   C2N  674   1.526   3.138   2.414
   13POPC   C2O  675   1.418   3.183   2.513
   13POPC   C2P  676   1.476   3.265   2.628
   14POPC   CN1  677   4.717   3.655   0.259
   14POPC   CN2  678   4.919   3.684   0.388
   14POPC   CN3  679   4.918   3.684   0.135
   14POPC   NTM  680   4.861   3.621   0.262
   14POPC    CA  681   4.879   3.464   0.252
   14POPC    CB  682   5.032   3.429   0.247
   14POPC    OA  683   5.095   3.478   0.367
   14POPC     P  684   5.241   3.436   0.400
   14POPC    OB  685   5.310   3.561   0.374
   14POPC    OC  686   5.279   3.316   0.327
   14POPC    OD  687   5.234   3.412   0.555
   14POPC    CC  688   5.122   3.370   0.629
   14POPC    CD  689   5.036   3.482   0.683
   14POPC    OE  690   5.107   3.545   0.787
   14POPC   C1A  691   5.063   3.666   0.821
   14POPC    OF  692   4.974   3.731   0.766
   14POPC   C1B  693   5.157   3.716   0.928
   14POPC   C1C  694   5.120   3.850   0.999
   14POPC   C1D  695   5.010   3.822   1.103
   14POPC   C1E  696   4.990   3.932   1.205
   14POPC   C1F  697   4.863   3.916   1.291
   14POPC   C1G  698   4.876   4.020   1.407
   14POPC   C1H  699   4.773   3.986   1.517
   14POPC   C1I  700   4.782   4.109   1.607
   14POPC   C1J  701   4.812   4.109   1.735
   14POPC   C1K  702   4.852   3.998   1.822
   14POPC   C1L  703   4.844   4.016   1.979
   14POPC   C1M  704   4.695   4.017   2.014
   14POPC   C1N  705   4.661   4.008   2.165
   14POPC   C1O  706   4.748   4.091   2.265
   14POPC   C1P  707   4.701   4.094   2.403
   14POPC   C1Q  708   4.731   3.964   2.483
   14POPC   C1R  709   4.657   3.965   2.622
   14POPC    CE  710   4.899   3.438   0.719
   14POPC    OG  711   4.899   3.339   0.823
   14POPC   C2A  712   4.862   3.376   0.943
   14POPC    OH  713   4.812   3.484   0.974
   14POPC   C2B  714   4.885   3.264   1.041
   14POPC   C2C  715   4.916   3.325   1.181
   14POPC   C2D  716   4.961   3.223   1.282
   14POPC   C2E  717   4.990   3.278   1.429
   14POPC   C2F  718   5.032   3.175   1.537
   14POPC   C2G  719   5.055   3.240   1.678
   14POPC   C2H  720   5.115   3.140   1.777
   14POPC   C2I  721   5.136   3.210   1.915
   14POPC   C2J  722   5.218   3.124   2.012
   14POPC   C2K  723   5.249   3.214   2.130
   14POPC   C2L  724   5.319   3.135   2.242
   14POPC   C2M  725   5.401   3.226   2.335
   14POPC   C2N  726   5.435   3.149   2.461
   14POPC   C2O  727   5.523   3.230   2.557
   14POPC   C2P  728   5.564   3.149   2.679
   15POPC   CN1  729   0.465   3.685   0.282
   15POPC   CN2  730   0.552   3.865   0.417
   15POPC   CN3  731   0.516   3.886   0.167
   15POPC   NTM  732   0.562   3.796   0.282
   15POPC    CA  733   0.707   3.741   0.247
   15POPC    CB  734   0.808   3.861   0.238
   15POPC    OA  735   0.810   3.928   0.365
   15POPC     P  736   0.919   4.036   0.394
   15POPC    OB  737   0.839   4.156   0.389
   15POPC    OC  738   1.032   4.021   0.303
   15POPC    OD  739   0.959   4.006   0.543
   15POPC    CC  740   0.953   3.881   0.607
   15POPC    CD  741   0.822   3.852   0.677
   15POPC    OE  742   0.814   3.934   0.791
   15POPC   C1A  743   0.693   3.948   0.843
   15POPC    OF  744   0.587   3.903   0.798
   15POPC   C1B  745   0.707   4.045   0.958
   15POPC   C1C  746   0.582   4.067   1.049
   15POPC   C1D  747   0.570   3.948   1.146
   15POPC   C1E  748   0.478   3.973   1.264
   15POPC   C1F  749   0.445   3.845   1.344
   15POPC   C1G  750   0.376   3.894   1.476
   15POPC   C1H  751   0.373   3.778   1.577
   15POPC   C1I  752   0.281   3.835   1.687
   15POPC   C1J  753   0.313   3.850   1.813
   15POPC   C1K  754   0.440   3.828   1.882
   15POPC   C1L  755   0.442   3.816   2.039
   15POPC   C1M  756   0.377   3.681   2.072
   15POPC   C1N  757   0.389   3.634   2.219
   15POPC   C1O  758   0.370   3.740   2.332
   15POPC   C1P  759   0.365   3.689   2.468
   15POPC   C1Q  760   0.503   3.649   2.527
   15POPC   C1R  761   0.487   3.572   2.664
   15POPC    CE  762   0.802   3.707   0.704
   15POPC    OG  763   0.903   3.653   0.791
   15POPC   C2A  764   0.870   3.626   0.915
   15POPC    OH  765   0.756   3.629   0.962
   15POPC   C2B  766   0.991   3.588   0.994
   15POPC   C2C  767   0.971   3.631   1.142
   15POPC   C2D  768   1.095   3.616   1.226
   15POPC   C2E  769   1.081   3.654   1.381
   15POPC   C2F  770   1.205   3.635   1.471
   15POPC   C2G  771   1.178   3.673   1.621
   15POPC   C2H  772   1.307   3.672   1.704
   15POPC   C2I  773   1.274   3.711   1.851
   15POPC   C2J  774   1.401   3.736   1.934
   15POPC   C2K  775   1.353   3.795   2.065
   15POPC   C2L  776   1.469   3.811   2.165
   15POPC   C2M  777   1.441   3.917   2.272
   15POPC   C2N  778   1.541   3.902   2.384
   15POPC   C2O  779   1.524   4.008   2.492
   15POPC   C2P  780   1.630   3.998   2.601
   16POPC   CN1  781   4.210   5.736   0.243
   16POPC   CN2  782   4.406   5.791   0.373
   16POPC   CN3  783   4.399   5.813   0.121
   16POPC   NTM  784   4.358   5.729   0.242
   16POPC    CA  785   4.405   5.581   0.217
   16POPC    CB  786   4.562   5.576   0.208
   16POPC    OA  787   4.617   5.625   0.331
   16POPC     P  788   4.769   5.609   0.360
   16POPC    OB  789   4.813   5.746   0.345
   16POPC    OC  790   4.827   5.505   0.276
   16POPC    OD  791   4.771   5.570   0.512
   16POPC    CC  792   4.670   5.501   0.582
   16POPC    CD  793   4.566   5.590   0.647
   16POPC    OE  794   4.627   5.656   0.756
   16POPC   C1A  795   4.562   5.762   0.801
   16POPC    OF  796   4.460   5.814   0.752
   16POPC   C1B  797   4.648   5.820   0.912
   16POPC   C1C  798   4.587   5.937   0.995
   16POPC   C1D  799   4.488   5.880   1.097
   16POPC   C1E  800   4.450   5.975   1.208
   16POPC   C1F  801   4.330   5.927   1.293
   16POPC   C1G  802   4.326   6.021   1.418
   16POPC   C1H  803   4.234   5.958   1.526
   16POPC   C1I  804   4.223   6.073   1.627
   16POPC   C1J  805   4.255   6.066   1.754
   16POPC   C1K  806   4.317   5.958   1.830
   16POPC   C1L  807   4.310   5.960   1.988
   16POPC   C1M  808   4.164   5.929   2.024
   16POPC   C1N  809   4.136   5.901   2.174
   16POPC   C1O  810   4.208   5.990   2.280
   16POPC   C1P  811   4.166   5.971   2.418
   16POPC   C1Q  812   4.222   5.843   2.485
   16POPC   C1R  813   4.152   5.818   2.625
   16POPC    CE  814   4.441   5.518   0.679
   16POPC    OG  815   4.462   5.412   0.775
   16POPC   C2A  816   4.422   5.430   0.897
   16POPC    OH  817   4.353   5.523   0.939
   16POPC   C2B  818   4.468   5.317   0.984
   16POPC   C2C  819   4.490   5.369   1.129
   16POPC   C2D  820   4.557   5.269   1.220
   16POPC   C2E  821   4.578   5.315   1.372
   16POPC   C2F  822   4.642   5.213   1.469
   16POPC   C2G  823   4.655   5.268   1.615
   16POPC   C2H  824   4.735   5.173   1.704
   16POPC   C2I  825   4.746   5.233   1.848
   16POPC   C2J  826   4.845   5.156   1.935
   16POPC   C2K  827   4.863   5.239   2.061
   16POPC   C2L  828   4.949   5.166   2.165
   16POPC   C2M  829   5.014   5.261   2.266
   16POPC   C2N  830   5.065   5.181   2.383
   16POPC   C2O  831   5.139   5.269   2.486
   16POPC   C2P  832   5.198   5.187   2.600
   17POPC   CN1  833   5.036   0.143   0.334
   17POPC   CN2  834   5.173   0.308   0.443
   17POPC   CN3  835   5.138   0.304   0.192
   17POPC   NTM  836   5.160   0.221   0.319
   17POPC    CA  837   5.283   0.124   0.293
   17POPC    CB  838   5.413   0.208   0.270
   17POPC    OA  839   5.437   0.289   0.386
   17POPC     P  840   5.573   0.364   0.400
   17POPC    OB  841   5.529   0.500   0.378
   17POPC    OC  842   5.675   0.306   0.314
   17POPC    OD  843   5.606   0.345   0.553
   17POPC    CC  844   5.568   0.236   0.633
   17POPC    CD  845   5.436   0.255   0.706
   17POPC    OE  846   5.455   0.351   0.807
   17POPC   C1A  847   5.343   0.405   0.855
   17POPC    OF  848   5.228   0.386   0.815
   17POPC   C1B  849   5.388   0.509   0.956
   17POPC   C1C  850   5.276   0.578   1.041
   17POPC   C1D  851   5.234   0.482   1.154
   17POPC   C1E  852   5.156   0.547   1.266
   17POPC   C1F  853   5.091   0.446   1.363
   17POPC   C1G  854   5.042   0.530   1.485
   17POPC   C1H  855   5.009   0.434   1.602
   17POPC   C1I  856   4.940   0.529   1.701
   17POPC   C1J  857   4.978   0.552   1.825
   17POPC   C1K  858   5.096   0.504   1.898
   17POPC   C1L  859   5.099   0.513   2.055
   17POPC   C1M  860   5.000   0.408   2.106
   17POPC   C1N  861   5.003   0.380   2.258
   17POPC   C1O  862   5.017   0.502   2.355
   17POPC   C1P  863   5.002   0.473   2.497
   17POPC   C1Q  864   5.125   0.405   2.562
   17POPC   C1R  865   5.092   0.355   2.708
   17POPC    CE  866   5.377   0.127   0.752
   17POPC    OG  867   5.461   0.059   0.847
   17POPC   C2A  868   5.425   0.060   0.973
   17POPC    OH  869   5.318   0.101   1.018
   17POPC   C2B  870   5.533  -0.000   1.058
   17POPC   C2C  871   5.531   0.067   1.199
   17POPC   C2D  872   5.648   0.030   1.285
   17POPC   C2E  873   5.648   0.091   1.433
   17POPC   C2F  874   5.765   0.050   1.526
   17POPC   C2G  875   5.753   0.114   1.669
   17POPC   C2H  876   5.879   0.088   1.753
   17POPC   C2I  877   5.863   0.155   1.893
   17POPC   C2J  878   5.994   0.154   1.973
   17POPC   C2K  879   5.968   0.241   2.094
   17POPC   C2L  880   6.087   0.238   2.192
   17POPC   C2M  881   6.092   0.361   2.283
   17POPC   C2N  882   6.187   0.333   2.397
   17POPC   C2O  883   6.203   0.454   2.490
   17POPC   C2P  884   6.306   0.429   2.600
   18POPC   CN1  885   3.502   5.169   0.244
   18POPC   CN2  886   3.371   5.016   0.377
   18POPC   CN3  887   3.364   5.017   0.124
   18POPC   NTM  888   3.370   5.102   0.251
   18POPC    CA  889   3.254   5.209   0.244
   18POPC    CB  890   3.115   5.137   0.244
   18POPC    OA  891   3.103   5.058   0.364
   18POPC     P  892   2.966   4.995   0.401
   18POPC    OB  893   2.994   4.856   0.374
   18POPC    OC  894   2.857   5.062   0.332
   18POPC    OD  895   2.960   5.018   0.557
   18POPC    CC  896   3.020   5.122   0.629
   18POPC    CD  897   3.161   5.092   0.679
   18POPC    OE  898   3.150   4.998   0.783
   18POPC   C1A  899   3.263   4.935   0.813
   18POPC    OF  900   3.372   4.943   0.754
   18POPC   C1B  901   3.227   4.835   0.921
   18POPC   C1C  902   3.345   4.757   0.988
   18POPC   C1D  903   3.413   4.849   1.090
   18POPC   C1E  904   3.503   4.778   1.189
   18POPC   C1F  905   3.592   4.873   1.272
   18POPC   C1G  906   3.653   4.785   1.387
   18POPC   C1H  907   3.713   4.878   1.495
   18POPC   C1I  908   3.789   4.777   1.583
   18POPC   C1J  909   3.770   4.758   1.711
   18POPC   C1K  910   3.670   4.816   1.802
   18POPC   C1L  911   3.692   4.807   1.958
   18POPC   C1M  912   3.808   4.903   1.990
   18POPC   C1N  913   3.832   4.931   2.140
   18POPC   C1O  914   3.823   4.811   2.240
   18POPC   C1P  915   3.865   4.839   2.376
   18POPC   C1Q  916   3.760   4.918   2.460
   18POPC   C1R  917   3.821   4.965   2.598
   18POPC    CE  918   3.237   5.215   0.712
   18POPC    OG  919   3.176   5.290   0.819
   18POPC   C2A  920   3.232   5.286   0.937
   18POPC    OH  921   3.341   5.235   0.965
   18POPC   C2B  922   3.145   5.355   1.038
   18POPC   C2C  923   3.165   5.288   1.178
   18POPC   C2D  924   3.068   5.336   1.281
   18POPC   C2E  925   3.086   5.275   1.428
   18POPC   C2F  926   2.990   5.326   1.539
   18POPC   C2G  927   3.020   5.261   1.679
   18POPC   C2H  928   2.912   5.298   1.782
   18POPC   C2I  929   2.946   5.230   1.918
   18POPC   C2J  930   2.831   5.243   2.019
   18POPC   C2K  931   2.869   5.153   2.135
   18POPC   C2L  932   2.768   5.167   2.251
   18POPC   C2M  933   2.768   5.045   2.344
   18POPC   C2N  934   2.696   5.081   2.472
   18POPC   C2O  935   2.684   4.962   2.567
   18POPC   C2P  936   2.605   4.996   2.693
   19POPC   CN1  937   3.202   5.912   0.308
   19POPC   CN2  938   3.410   5.910   0.430
   19POPC   CN3  939   3.399   5.939   0.179
   19POPC   NTM  940   3.342   5.866   0.301
   19POPC    CA  941   3.348   5.711   0.272
   19POPC    CB  942   3.497   5.665   0.256
   19POPC    OA  943   3.567   5.695   0.378
   19POPC     P  944   3.711   5.639   0.400
   19POPC    OB  945   3.789   5.760   0.384
   19POPC    OC  946   3.736   5.525   0.312
   19POPC    OD  947   3.708   5.597   0.551
   19POPC    CC  948   3.596   5.556   0.624
   19POPC    CD  949   3.521   5.668   0.695
   19POPC    OE  950   3.601   5.713   0.802
   19POPC   C1A  951   3.568   5.832   0.851
   19POPC    OF  952   3.482   5.910   0.807
   19POPC   C1B  953   3.670   5.862   0.959
   19POPC   C1C  954   3.646   5.990   1.045
   19POPC   C1D  955   3.539   5.958   1.151
   19POPC   C1E  956   3.532   6.057   1.265
   19POPC   C1F  957   3.407   6.041   1.354
   19POPC   C1G  958   3.432   6.129   1.480
   19POPC   C1H  959   3.331   6.091   1.591
   19POPC   C1I  960   3.354   6.203   1.694
   19POPC   C1J  961   3.388   6.185   1.819
   19POPC   C1K  962   3.422   6.062   1.892
   19POPC   C1L  963   3.422   6.063   2.049
   19POPC   C1M  964   3.274   6.071   2.092
   19POPC   C1N  965   3.245   6.047   2.241
   19POPC   C1O  966   3.342   6.112   2.346
   19POPC   C1P  967   3.302   6.102   2.485
   19POPC   C1Q  968   3.324   5.963   2.549
   19POPC   C1R  969   3.256   5.953   2.691
   19POPC    CE  970   3.382   5.631   0.732
   19POPC    OG  971   3.378   5.520   0.825
   19POPC   C2A  972   3.349   5.546   0.949
   19POPC    OH  973   3.309   5.653   0.994
   19POPC   C2B  974   3.366   5.423   1.033
   19POPC   C2C  975   3.407   5.464   1.177
   19POPC   C2D  976   3.449   5.348   1.264
   19POPC   C2E  977   3.487   5.384   1.415
   19POPC   C2F  978   3.525   5.266   1.508
   19POPC   C2G  979   3.558   5.313   1.655
   19POPC   C2H  980   3.613   5.198   1.739
   19POPC   C2I  981   3.645   5.250   1.883
   19POPC   C2J  982   3.723   5.147   1.965
   19POPC   C2K  983   3.766   5.220   2.092
   19POPC   C2L  984   3.834   5.124   2.191
   19POPC   C2M  985   3.926   5.197   2.289
   19POPC   C2N  986   3.959   5.104   2.404
   19POPC   C2O  987   4.056   5.167   2.504
   19POPC   C2P  988   4.095   5.070   2.615
   20POPC   CN1  989   0.172   6.066   0.259
   20POPC   CN2  990   0.322   6.183   0.408
   20POPC   CN3  991   0.308   6.234   0.161
   20POPC   NTM  992   0.307   6.125   0.268
   20POPC    CA  993   0.417   6.017   0.229
   20POPC    CB  994   0.559   6.083   0.231
   20POPC    OA  995   0.584   6.134   0.363
   20POPC     P  996   0.727   6.183   0.400
   20POPC    OB  997   0.705   6.326   0.405
   20POPC    OC  998   0.827   6.128   0.309
   20POPC    OD  999   0.745   6.128   0.546
   20POPC    CC 1000   0.685   6.014   0.600
   20POPC    CD 1001   0.551   6.037   0.668
   20POPC    OE 1002   0.575   6.107   0.788
   20POPC   C1A 1003   0.468   6.167   0.840
   20POPC    OF 1004   0.355   6.175   0.791
   20POPC   C1B 1005   0.518   6.240   0.963
   20POPC   C1C 1006   0.410   6.307   1.054
   20POPC   C1D 1007   0.346   6.198   1.142
   20POPC   C1E 1008   0.268   6.250   1.260
   20POPC   C1F 1009   0.181   6.143   1.330
   20POPC   C1G 1010   0.134   6.207   1.465
   20POPC   C1H 1011   0.079   6.096   1.557
   20POPC   C1I 1012   0.016   6.179   1.670
   20POPC   C1J 1013   0.046   6.170   1.798
   20POPC   C1K 1014   0.149   6.091   1.865
   20POPC   C1L 1015   0.140   6.068   2.021
   20POPC   C1M 1016   0.023   5.971   2.043
   20POPC   C1N 1017   0.009   5.913   2.185
   20POPC   C1O 1018   0.032   6.009   2.306
   20POPC   C1P 1019   0.001   5.955   2.438
   20POPC   C1Q 1020   0.107   5.857   2.493
   20POPC   C1R 1021   0.055   5.784   2.624
   20POPC    CE 1022   0.471   5.913   0.682
   20POPC    OG 1023   0.536   5.816   0.765
   20POPC   C2A 1024   0.491   5.797   0.886
   20POPC    OH 1025   0.387   5.844   0.933
   20POPC   C2B 1026   0.581   5.705   0.962
   20POPC   C2C 1027   0.576   5.741   1.114
   20POPC   C2D 1028   0.679   5.670   1.197
   20POPC   C2E 1029   0.676   5.699   1.354
   20POPC   C2F 1030   0.777   5.623   1.443
   20POPC   C2G 1031   0.762   5.658   1.595
   20POPC   C2H 1032   0.876   5.597   1.678
   20POPC   C2I 1033   0.857   5.635   1.828
   20POPC   C2J 1034   0.979   5.598   1.913
   20POPC   C2K 1035   0.956   5.662   2.049
   20POPC   C2L 1036   1.064   5.621   2.149
   20POPC   C2M 1037   1.079   5.721   2.264
   20POPC   C2N 1038   1.159   5.656   2.375
   20POPC   C2O 1039   1.184   5.752   2.492
   20POPC   C2P 1040   1.272   5.690   2.600
   21POPC   CN1 1041   3.768   3.793   0.224
   21POPC   CN2 1042   3.613   3.919   0.359
   21POPC   CN3 1043   3.602   3.914   0.106
   21POPC   NTM 1044   3.693   3.919   0.229
   21POPC    CA 1045   3.791   4.042   0.212
   21POPC    CB 1046   3.709   4.176   0.209
   21POPC    OA 1047   3.636   4.188   0.332
   21POPC     P 1048   3.566   4.322   0.367
   21POPC    OB 1049   3.427   4.284   0.349
   21POPC    OC 1050   3.621   4.432   0.290
   21POPC    OD 1051   3.595   4.337   0.521
   21POPC    CC 1052   3.707   4.287   0.590
   21POPC    CD 1053   3.690   4.147   0.647
   21POPC    OE 1054   3.600   4.156   0.756
   21POPC   C1A 1055   3.547   4.040   0.794
   21POPC    OF 1056   3.560   3.930   0.739
   21POPC   C1B 1057   3.450   4.074   0.905
   21POPC   C1C 1058   3.384   3.955   0.981
   21POPC   C1D 1059   3.486   3.898   1.081
   21POPC   C1E 1060   3.426   3.808   1.187
   21POPC   C1F 1061   3.531   3.730   1.269
   21POPC   C1G 1062   3.453   3.668   1.390
   21POPC   C1H 1063   3.555   3.620   1.496
   21POPC   C1I 1064   3.464   3.541   1.592
   21POPC   C1J 1065   3.451   3.565   1.721
   21POPC   C1K 1066   3.506   3.672   1.804
   21POPC   C1L 1067   3.506   3.657   1.961
   21POPC   C1M 1068   3.612   3.549   1.992
   21POPC   C1N 1069   3.649   3.534   2.142
   21POPC   C1O 1070   3.534   3.539   2.247
   21POPC   C1P 1071   3.571   3.506   2.384
   21POPC   C1Q 1072   3.647   3.619   2.459
   21POPC   C1R 1073   3.705   3.568   2.596
   21POPC    CE 1074   3.819   4.081   0.677
   21POPC    OG 1075   3.894   4.152   0.777
   21POPC   C2A 1076   3.900   4.101   0.898
   21POPC    OH 1077   3.859   3.990   0.932
   21POPC   C2B 1078   3.968   4.197   0.991
   21POPC   C2C 1079   3.910   4.179   1.135
   21POPC   C2D 1080   3.956   4.284   1.232
   21POPC   C2E 1081   3.904   4.268   1.382
   21POPC   C2F 1082   3.953   4.372   1.486
   21POPC   C2G 1083   3.898   4.344   1.630
   21POPC   C2H 1084   3.932   4.459   1.726
   21POPC   C2I 1085   3.874   4.427   1.868
   21POPC   C2J 1086   3.884   4.548   1.962
   21POPC   C2K 1087   3.803   4.509   2.085
   21POPC   C2L 1088   3.816   4.615   2.195
   21POPC   C2M 1089   3.699   4.612   2.294
   21POPC   C2N 1090   3.736   4.692   2.417
   21POPC   C2O 1091   3.621   4.700   2.518
   21POPC   C2P 1092   3.656   4.787   2.638
   22POPC   CN1 1093   4.141   3.376   0.328
   22POPC   CN2 1094   3.977   3.530   0.415
   22POPC   CN3 1095   4.031   3.514   0.169
   22POPC   NTM 1096   4.087   3.512   0.312
   22POPC    CA 1097   4.204   3.619   0.320
   22POPC    CB 1098   4.146   3.762   0.294
   22POPC    OA 1099   4.046   3.791   0.393
   22POPC     P 1100   3.990   3.935   0.407
   22POPC    OB 1101   3.857   3.917   0.352
   22POPC    OC 1102   4.080   4.033   0.346
   22POPC    OD 1103   3.980   3.954   0.563
   22POPC    CC 1104   4.061   3.891   0.659
   22POPC    CD 1105   4.008   3.759   0.711
   22POPC    OE 1106   3.896   3.786   0.792
   22POPC   C1A 1107   3.817   3.681   0.816
   22POPC    OF 1108   3.827   3.568   0.768
   22POPC   C1B 1109   3.701   3.735   0.897
   22POPC   C1C 1110   3.600   3.630   0.953
   22POPC   C1D 1111   3.662   3.564   1.078
   22POPC   C1E 1112   3.563   3.489   1.165
   22POPC   C1F 1113   3.630   3.400   1.273
   22POPC   C1G 1114   3.515   3.357   1.369
   22POPC   C1H 1115   3.577   3.300   1.499
   22POPC   C1I 1116   3.453   3.240   1.568
   22POPC   C1J 1117   3.410   3.272   1.688
   22POPC   C1K 1118   3.457   3.374   1.781
   22POPC   C1L 1119   3.414   3.367   1.933
   22POPC   C1M 1120   3.490   3.247   1.993
   22POPC   C1N 1121   3.484   3.234   2.147
   22POPC   C1O 1122   3.347   3.261   2.218
   22POPC   C1P 1123   3.342   3.230   2.360
   22POPC   C1Q 1124   3.411   3.335   2.451
   22POPC   C1R 1125   3.422   3.283   2.599
   22POPC    CE 1126   4.113   3.676   0.776
   22POPC    OG 1127   4.170   3.741   0.892
   22POPC   C2A 1128   4.136   3.696   1.010
   22POPC    OH 1129   4.071   3.594   1.033
   22POPC   C2B 1130   4.191   3.785   1.117
   22POPC   C2C 1131   4.095   3.783   1.240
   22POPC   C2D 1132   4.129   3.885   1.344
   22POPC   C2E 1133   4.037   3.885   1.475
   22POPC   C2F 1134   4.073   3.986   1.588
   22POPC   C2G 1135   3.978   3.974   1.712
   22POPC   C2H 1136   4.003   4.087   1.813
   22POPC   C2I 1137   3.906   4.070   1.934
   22POPC   C2J 1138   3.908   4.193   2.026
   22POPC   C2K 1139   3.793   4.173   2.123
   22POPC   C2L 1140   3.792   4.281   2.232
   22POPC   C2M 1141   3.654   4.300   2.296
   22POPC   C2N 1142   3.669   4.380   2.423
   22POPC   C2O 1143   3.535   4.409   2.490
   22POPC   C2P 1144   3.550   4.497   2.614
   23POPC   CN1 1145   3.859   5.935   0.317
   23POPC   CN2 1146   4.006   6.084   0.438
   23POPC   CN3 1147   3.972   6.099   0.188
   23POPC   NTM 1148   3.988   6.006   0.308
   23POPC    CA 1149   4.104   5.904   0.276
   23POPC    CB 1150   4.240   5.981   0.259
   23POPC    OA 1151   4.268   6.052   0.380
   23POPC     P 1152   4.408   6.117   0.400
   23POPC    OB 1153   4.373   6.257   0.388
   23POPC    OC 1154   4.507   6.059   0.310
   23POPC    OD 1155   4.440   6.084   0.551
   23POPC    CC 1156   4.394   5.973   0.624
   23POPC    CD 1157   4.263   5.995   0.697
   23POPC    OE 1158   4.288   6.082   0.805
   23POPC   C1A 1159   4.179   6.140   0.857
   23POPC    OF 1160   4.063   6.131   0.815
   23POPC   C1B 1161   4.229   6.233   0.965
   23POPC   C1C 1162   4.122   6.302   1.054
   23POPC   C1D 1163   4.074   6.201   1.160
   23POPC   C1E 1164   3.999   6.262   1.276
   23POPC   C1F 1165   3.927   6.159   1.365
   23POPC   C1G 1166   3.882   6.237   1.494
   23POPC   C1H 1167   3.843   6.135   1.604
   23POPC   C1I 1168   3.780   6.227   1.709
   23POPC   C1J 1169   3.818   6.238   1.834
   23POPC   C1K 1170   3.933   6.178   1.903
   23POPC   C1L 1171   3.936   6.176   2.061
   23POPC   C1M 1172   3.829   6.073   2.104
   23POPC   C1N 1173   3.830   6.034   2.253
   23POPC   C1O 1174   3.851   6.148   2.359
   23POPC   C1P 1175   3.833   6.109   2.498
   23POPC   C1Q 1176   3.951   6.029   2.558
   23POPC   C1R 1177   3.914   5.971   2.700
   23POPC    CE 1178   4.196   5.868   0.734
   23POPC    OG 1179   4.275   5.788   0.824
   23POPC   C2A 1180   4.239   5.782   0.949
   23POPC    OH 1181   4.134   5.827   0.997
   23POPC   C2B 1182   4.342   5.710   1.030
   23POPC   C2C 1183   4.343   5.766   1.175
   23POPC   C2D 1184   4.457   5.716   1.259
   23POPC   C2E 1185   4.461   5.766   1.411
   23POPC   C2F 1186   4.574   5.711   1.501
   23POPC   C2G 1187   4.566   5.765   1.648
   23POPC   C2H 1188   4.689   5.726   1.730
   23POPC   C2I 1189   4.676   5.783   1.875
   23POPC   C2J 1190   4.806   5.768   1.954
   23POPC   C2K 1191   4.785   5.848   2.082
   23POPC   C2L 1192   4.903   5.830   2.179
   23POPC   C2M 1193   4.916   5.945   2.278
   23POPC   C2N 1194   5.008   5.904   2.391
   23POPC   C2O 1195   5.031   6.016   2.492
   23POPC   C2P 1196   5.131   5.977   2.600
   24POPC   CN1 1197   1.985   2.900   0.248
   24POPC   CN2 1198   1.976   2.708   0.395
   24POPC   CN3 1199   2.011   2.688   0.145
   24POPC   NTM 1200   1.936   2.761   0.257
   24POPC    CA 1201   1.781   2.755   0.226
   24POPC    CB 1202   1.733   2.605   0.227
   24POPC    OA 1203   1.760   2.550   0.357
   24POPC     P 1204   1.700   2.411   0.395
   24POPC    OB 1205   1.820   2.330   0.392
   24POPC    OC 1206   1.588   2.377   0.308
   24POPC    OD 1207   1.655   2.433   0.544
   24POPC    CC 1208   1.615   2.554   0.602
   24POPC    CD 1209   1.726   2.635   0.665
   24POPC    OE 1210   1.767   2.568   0.783
   24POPC   C1A 1211   1.886   2.605   0.830
   24POPC    OF 1212   1.966   2.683   0.778
   24POPC   C1B 1213   1.912   2.516   0.950
   24POPC   C1C 1214   2.038   2.549   1.036
   24POPC   C1D 1215   2.006   2.669   1.127
   24POPC   C1E 1216   2.103   2.688   1.242
   24POPC   C1F 1217   2.087   2.823   1.314
   24POPC   C1G 1218   2.172   2.812   1.445
   24POPC   C1H 1219   2.133   2.927   1.541
   24POPC   C1I 1220   2.242   2.915   1.649
   24POPC   C1J 1221   2.221   2.897   1.777
   24POPC   C1K 1222   2.096   2.873   1.850
   24POPC   C1L 1223   2.093   2.893   2.007
   24POPC   C1M 1224   2.103   3.045   2.031
   24POPC   C1N 1225   2.077   3.092   2.175
   24POPC   C1O 1226   2.137   3.007   2.292
   24POPC   C1P 1227   2.125   3.065   2.426
   24POPC   C1Q 1228   1.984   3.053   2.488
   24POPC   C1R 1229   1.972   3.138   2.620
   24POPC    CE 1230   1.691   2.778   0.684
   24POPC    OG 1231   1.579   2.795   0.773
   24POPC   C2A 1232   1.602   2.839   0.894
   24POPC    OH 1233   1.709   2.882   0.936
   24POPC   C2B 1234   1.477   2.834   0.976
   24POPC   C2C 1235   1.514   2.810   1.125
   24POPC   C2D 1236   1.396   2.782   1.214
   24POPC   C2E 1237   1.427   2.762   1.369
   24POPC   C2F 1238   1.307   2.738   1.463
   24POPC   C2G 1239   1.350   2.722   1.614
   24POPC   C2H 1240   1.232   2.679   1.702
   24POPC   C2I 1241   1.280   2.665   1.850
   24POPC   C2J 1242   1.174   2.599   1.938
   24POPC   C2K 1243   1.243   2.570   2.070
   24POPC   C2L 1244   1.144   2.517   2.175
   24POPC   C2M 1245   1.213   2.437   2.286
   24POPC   C2N 1246   1.117   2.420   2.401
   24POPC   C2O 1247   1.175   2.334   2.514
   24POPC   C2P 1248   1.075   2.310   2.626
   25POPC   CN1 1249   1.452   4.391   0.319
   25POPC   CN2 1250   1.475   4.184   0.441
   25POPC   CN3 1251   1.510   4.200   0.191
   25POPC   NTM 1252   1.426   4.246   0.311
   25POPC    CA 1253   1.274   4.219   0.277
   25POPC    CB 1254   1.250   4.065   0.260
   25POPC    OA 1255   1.286   3.999   0.382
   25POPC     P 1256   1.249   3.849   0.402
   25POPC    OB 1257   1.380   3.789   0.391
   25POPC    OC 1258   1.143   3.808   0.311
   25POPC    OD 1259   1.203   3.845   0.553
   25POPC    CC 1260   1.144   3.950   0.625
   25POPC    CD 1261   1.243   4.039   0.698
   25POPC    OE 1262   1.295   3.966   0.807
   25POPC   C1A 1263   1.407   4.015   0.860
   25POPC    OF 1264   1.473   4.110   0.818
   25POPC   C1B 1265   1.447   3.917   0.968
   25POPC   C1C 1266   1.568   3.958   1.059
   25POPC   C1D 1267   1.518   4.059   1.163
   25POPC   C1E 1268   1.612   4.079   1.280
   25POPC   C1F 1269   1.576   4.201   1.369
   25POPC   C1G 1270   1.663   4.187   1.498
   25POPC   C1H 1271   1.608   4.281   1.607
   25POPC   C1I 1272   1.719   4.273   1.714
   25POPC   C1J 1273   1.702   4.237   1.839
   25POPC   C1K 1274   1.583   4.185   1.907
   25POPC   C1L 1275   1.579   4.185   2.065
   25POPC   C1M 1276   1.565   4.332   2.107
   25POPC   C1N 1277   1.533   4.356   2.256
   25POPC   C1O 1278   1.607   4.269   2.363
   25POPC   C1P 1279   1.588   4.307   2.502
   25POPC   C1Q 1280   1.451   4.265   2.561
   25POPC   C1R 1281   1.428   4.331   2.703
   25POPC    CE 1282   1.185   4.172   0.734
   25POPC    OG 1283   1.073   4.160   0.824
   25POPC   C2A 1284   1.090   4.192   0.949
   25POPC    OH 1285   1.190   4.246   0.998
   25POPC   C2B 1286   0.968   4.157   1.029
   25POPC   C2C 1287   1.011   4.121   1.175
   25POPC   C2D 1288   0.899   4.064   1.258
   25POPC   C2E 1289   0.935   4.030   1.410
   25POPC   C2F 1290   0.821   3.976   1.499
   25POPC   C2G 1291   0.867   3.949   1.647
   25POPC   C2H 1292   0.758   3.878   1.728
   25POPC   C2I 1293   0.810   3.853   1.873
   25POPC   C2J 1294   0.716   3.761   1.952
   25POPC   C2K 1295   0.791   3.727   2.081
   25POPC   C2L 1296   0.702   3.647   2.177
   25POPC   C2M 1297   0.784   3.565   2.278
   25POPC   C2N 1298   0.693   3.520   2.389
   25POPC   C2O 1299   0.765   3.431   2.491
   25POPC   C2P 1300   0.671   3.378   2.599
   26POPC   CN1 1301   1.823   5.444   0.319
   26POPC   CN2 1302   1.677   5.276   0.410
   26POPC   CN3 1303   1.697   5.319   0.162
   26POPC   NTM 1304   1.691   5.381   0.301
   26POPC    CA 1305   1.577   5.492   0.301
   26POPC    CB 1306   1.438   5.424   0.274
   26POPC    OA 1307   1.413   5.328   0.378
   26POPC     P 1308   1.272   5.264   0.390
   26POPC    OB 1309   1.300   5.130   0.343
   26POPC    OC 1310   1.171   5.345   0.322
   26POPC    OD 1311   1.250   5.261   0.546
   26POPC    CC 1312   1.304   5.350   0.640
   26POPC    CD 1313   1.437   5.308   0.698
   26POPC    OE 1314   1.415   5.199   0.784
   26POPC   C1A 1315   1.523   5.128   0.814
   26POPC    OF 1316   1.637   5.143   0.769
   26POPC   C1B 1317   1.475   5.013   0.900
   26POPC   C1C 1318   1.584   4.922   0.964
   26POPC   C1D 1319   1.642   4.994   1.087
   26POPC   C1E 1320   1.720   4.905   1.181
   26POPC   C1F 1321   1.801   4.982   1.288
   26POPC   C1G 1322   1.849   4.875   1.391
   26POPC   C1H 1323   1.898   4.947   1.519
   26POPC   C1I 1324   1.963   4.831   1.597
   26POPC   C1J 1325   1.930   4.792   1.717
   26POPC   C1K 1326   1.822   4.837   1.806
   26POPC   C1L 1327   1.828   4.802   1.959
   26POPC   C1M 1328   1.941   4.888   2.018
   26POPC   C1N 1329   1.950   4.891   2.173
   26POPC   C1O 1330   1.929   4.756   2.250
   26POPC   C1P 1331   1.956   4.760   2.393
   26POPC   C1Q 1332   1.844   4.827   2.477
   26POPC   C1R 1333   1.891   4.850   2.626
   26POPC    CE 1334   1.512   5.421   0.759
   26POPC    OG 1335   1.441   5.479   0.870
   26POPC   C2A 1336   1.484   5.455   0.991
   26POPC    OH 1337   1.589   5.397   1.020
   26POPC   C2B 1338   1.388   5.509   1.092
   26POPC   C2C 1339   1.392   5.420   1.220
   26POPC   C2D 1340   1.285   5.453   1.320
   26POPC   C2E 1341   1.287   5.369   1.456
   26POPC   C2F 1342   1.181   5.403   1.563
   26POPC   C2G 1343   1.195   5.316   1.693
   26POPC   C2H 1344   1.077   5.339   1.789
   26POPC   C2I 1345   1.096   5.249   1.915
   26POPC   C2J 1346   0.971   5.248   2.004
   26POPC   C2K 1347   0.995   5.140   2.108
   26POPC   C2L 1348   0.883   5.138   2.213
   26POPC   C2M 1349   0.871   5.002   2.284
   26POPC   C2N 1350   0.787   5.019   2.408
   26POPC   C2O 1351   0.764   4.886   2.481
   26POPC   C2P 1352   0.672   4.902   2.601
   27POPC   CN1 1353   2.425   5.034   0.343
   27POPC   CN2 1354   2.398   5.254   0.440
   27POPC   CN3 1355   2.395   5.214   0.190
   27POPC   NTM 1356   2.460   5.177   0.324
   27POPC    CA 1357   2.616   5.193   0.309
   27POPC    CB 1358   2.651   5.343   0.281
   27POPC    OA 1359   2.604   5.423   0.390
   27POPC     P 1360   2.646   5.573   0.401
   27POPC    OB 1361   2.521   5.637   0.366
   27POPC    OC 1362   2.766   5.599   0.321
   27POPC    OD 1363   2.672   5.590   0.555
   27POPC    CC 1364   2.715   5.490   0.644
   27POPC    CD 1365   2.603   5.414   0.712
   27POPC    OE 1366   2.541   5.500   0.805
   27POPC   C1A 1367   2.421   5.462   0.846
   27POPC    OF 1368   2.355   5.365   0.805
   27POPC   C1B 1369   2.372   5.572   0.938
   27POPC   C1C 1370   2.239   5.546   1.015
   27POPC   C1D 1371   2.268   5.454   1.134
   27POPC   C1E 1372   2.158   5.450   1.239
   27POPC   C1F 1373   2.175   5.337   1.343
   27POPC   C1G 1374   2.073   5.368   1.457
   27POPC   C1H 1375   2.108   5.283   1.581
   27POPC   C1I 1376   1.985   5.307   1.671
   27POPC   C1J 1377   1.987   5.355   1.792
   27POPC   C1K 1378   2.099   5.408   1.871
   27POPC   C1L 1379   2.083   5.424   2.027
   27POPC   C1M 1380   2.082   5.282   2.085
   27POPC   C1N 1381   2.093   5.272   2.239
   27POPC   C1O 1382   2.010   5.373   2.325
   27POPC   C1P 1383   2.009   5.348   2.468
   27POPC   C1Q 1384   2.140   5.390   2.541
   27POPC   C1R 1385   2.140   5.338   2.691
   27POPC    CE 1386   2.647   5.283   0.767
   27POPC    OG 1387   2.747   5.299   0.870
   27POPC   C2A 1388   2.712   5.281   0.994
   27POPC    OH 1389   2.604   5.237   1.034
   27POPC   C2B 1390   2.824   5.318   1.086
   27POPC   C2C 1391   2.765   5.371   1.221
   27POPC   C2D 1392   2.868   5.431   1.312
   27POPC   C2E 1393   2.815   5.482   1.454
   27POPC   C2F 1394   2.919   5.540   1.553
   27POPC   C2G 1395   2.855   5.583   1.690
   27POPC   C2H 1396   2.957   5.658   1.777
   27POPC   C2I 1397   2.888   5.700   1.911
   27POPC   C2J 1398   2.976   5.795   1.993
   27POPC   C2K 1399   2.887   5.845   2.106
   27POPC   C2L 1400   2.967   5.931   2.206
   27POPC   C2M 1401   2.878   6.026   2.286
   27POPC   C2N 1402   2.956   6.079   2.404
   27POPC   C2O 1403   2.876   6.181   2.486
   27POPC   C2P 1404   2.958   6.240   2.600
   28POPC   CN1 1405   2.483   4.197   0.248
   28POPC   CN2 1406   2.685   4.179   0.378
   28POPC   CN3 1407   2.684   4.171   0.125
   28POPC   NTM 1408   2.613   4.128   0.254
   28POPC    CA 1409   2.592   3.971   0.249
   28POPC    CB 1410   2.732   3.900   0.246
   28POPC    OA 1411   2.805   3.936   0.365
   28POPC     P 1412   2.936   3.861   0.401
   28POPC    OB 1413   3.034   3.964   0.371
   28POPC    OC 1414   2.944   3.732   0.332
   28POPC    OD 1415   2.924   3.844   0.556
   28POPC    CC 1416   2.805   3.833   0.630
   28POPC    CD 1417   2.750   3.965   0.680
   28POPC    OE 1418   2.834   4.012   0.783
   28POPC   C1A 1419   2.821   4.141   0.812
   28POPC    OF 1420   2.750   4.224   0.754
   28POPC   C1B 1421   2.925   4.170   0.918
   28POPC   C1C 1422   2.921   4.311   0.984
   28POPC   C1D 1423   2.809   4.314   1.089
   28POPC   C1E 1424   2.817   4.429   1.187
   28POPC   C1F 1425   2.689   4.448   1.272
   28POPC   C1G 1426   2.728   4.549   1.385
   28POPC   C1H 1427   2.619   4.545   1.495
   28POPC   C1I 1428   2.659   4.666   1.582
   28POPC   C1J 1429   2.688   4.662   1.710
   28POPC   C1K 1430   2.700   4.548   1.801
   28POPC   C1L 1431   2.697   4.572   1.956
   28POPC   C1M 1432   2.552   4.611   1.991
   28POPC   C1N 1433   2.517   4.616   2.141
   28POPC   C1O 1434   2.622   4.679   2.239
   28POPC   C1P 1435   2.578   4.697   2.376
   28POPC   C1Q 1436   2.575   4.567   2.461
   28POPC   C1R 1437   2.504   4.590   2.600
   28POPC    CE 1438   2.606   3.957   0.716
   28POPC    OG 1439   2.582   3.865   0.824
   28POPC   C2A 1440   2.555   3.913   0.942
   28POPC    OH 1441   2.533   4.031   0.969
   28POPC   C2B 1442   2.550   3.803   1.044
   28POPC   C2C 1443   2.595   3.859   1.182
   28POPC   C2D 1444   2.615   3.752   1.287
   28POPC   C2E 1445   2.656   3.804   1.432
   28POPC   C2F 1446   2.672   3.697   1.543
   28POPC   C2G 1447   2.710   3.760   1.683
   28POPC   C2H 1448   2.743   3.651   1.786
   28POPC   C2I 1449   2.781   3.718   1.921
   28POPC   C2J 1450   2.839   3.618   2.021
   28POPC   C2K 1451   2.892   3.701   2.137
   28POPC   C2L 1452   2.941   3.612   2.252
   28POPC   C2M 1453   3.043   3.682   2.342
   28POPC   C2N 1454   3.057   3.604   2.471
   28POPC   C2O 1455   3.162   3.664   2.564
   28POPC   C2P 1456   3.183   3.579   2.690
   29POPC   CN1 1457   1.304   0.552   0.247
   29POPC   CN2 1458   1.211   0.363   0.365
   29POPC   CN3 1459   1.212   0.379   0.112
   29POPC   NTM 1460   1.193   0.454   0.244
   29POPC    CA 1461   1.054   0.529   0.237
   29POPC    CB 1462   0.938   0.424   0.226
   29POPC    OA 1463   0.942   0.338   0.341
   29POPC     P 1464   0.824   0.240   0.369
   29POPC    OB 1465   0.887   0.114   0.335
   29POPC    OC 1466   0.704   0.282   0.298
   29POPC    OD 1467   0.807   0.250   0.525
   29POPC    CC 1468   0.837   0.362   0.605
   29POPC    CD 1469   0.978   0.365   0.660
   29POPC    OE 1470   0.989   0.264   0.758
   29POPC   C1A 1471   1.113   0.230   0.790
   29POPC    OF 1472   1.218   0.269   0.737
   29POPC   C1B 1473   1.100   0.117   0.891
   29POPC   C1C 1474   1.231   0.068   0.959
   29POPC   C1D 1475   1.270   0.167   1.070
   29POPC   C1E 1476   1.372   0.114   1.169
   29POPC   C1F 1477   1.431   0.223   1.261
   29POPC   C1G 1478   1.509   0.146   1.373
   29POPC   C1H 1479   1.539   0.244   1.489
   29POPC   C1I 1480   1.635   0.160   1.575
   29POPC   C1J 1481   1.618   0.129   1.701
   29POPC   C1K 1482   1.503   0.154   1.790
   29POPC   C1L 1483   1.522   0.140   1.946
   29POPC   C1M 1484   1.608   0.260   1.989
   29POPC   C1N 1485   1.620   0.285   2.141
   29POPC   C1O 1486   1.638   0.160   2.234
   29POPC   C1P 1487   1.666   0.188   2.374
   29POPC   C1Q 1488   1.543   0.233   2.456
   29POPC   C1R 1489   1.585   0.285   2.599
   29POPC    CE 1490   1.021   0.500   0.703
   29POPC    OG 1491   0.939   0.550   0.811
   29POPC   C2A 1492   0.990   0.553   0.931
   29POPC    OH 1493   1.107   0.530   0.961
   29POPC   C2B 1494   0.885   0.592   1.031
   29POPC   C2C 1495   0.917   0.524   1.168
   29POPC   C2D 1496   0.807   0.538   1.269
   29POPC   C2E 1497   0.835   0.475   1.413
   29POPC   C2F 1498   0.726   0.493   1.522
   29POPC   C2G 1499   0.767   0.429   1.660
   29POPC   C2H 1500   0.650   0.431   1.759
   29POPC   C2I 1501   0.695   0.366   1.893
   29POPC   C2J 1502   0.577   0.342   1.988
   29POPC   C2K 1503   0.632   0.258   2.102
   29POPC   C2L 1504   0.528   0.239   2.213
   29POPC   C2M 1505   0.555   0.115   2.299
   29POPC   C2N 1506   0.472   0.123   2.425
   29POPC   C2O 1507   0.488  -0.000   2.514
   29POPC   C2P 1508   0.398   0.005   2.636
   30POPC   CN1 1509   3.250   3.072   0.264
   30POPC   CN2 1510   3.190   2.865   0.372
   30POPC   CN3 1511   3.186   2.894   0.120
   30POPC   NTM 1512   3.157   2.958   0.256
   30POPC    CA 1513   3.007   3.011   0.254
   30POPC    CB 1514   2.909   2.890   0.238
   30POPC    OA 1515   2.928   2.800   0.348
   30POPC     P 1516   2.827   2.683   0.370
   30POPC    OB 1517   2.908   2.570   0.330
   30POPC    OC 1518   2.701   2.710   0.302
   30POPC    OD 1519   2.810   2.683   0.527
   30POPC    CC 1520   2.823   2.793   0.613
   30POPC    CD 1521   2.963   2.815   0.667
   30POPC    OE 1522   2.990   2.712   0.760
   30POPC   C1A 1523   3.119   2.696   0.790
   30POPC    OF 1524   3.215   2.753   0.739
   30POPC   C1B 1525   3.124   2.578   0.884
   30POPC   C1C 1526   3.262   2.545   0.949
   30POPC   C1D 1527   3.287   2.644   1.065
   30POPC   C1E 1528   3.397   2.602   1.161
   30POPC   C1F 1529   3.439   2.713   1.258
   30POPC   C1G 1530   3.529   2.644   1.366
   30POPC   C1H 1531   3.546   2.739   1.487
   30POPC   C1I 1532   3.654   2.666   1.568
   30POPC   C1J 1533   3.643   2.626   1.693
   30POPC   C1K 1534   3.527   2.628   1.783
   30POPC   C1L 1535   3.549   2.610   1.938
   30POPC   C1M 1536   3.616   2.739   1.987
   30POPC   C1N 1537   3.626   2.757   2.140
   30POPC   C1O 1538   3.664   2.631   2.226
   30POPC   C1P 1539   3.690   2.656   2.367
   30POPC   C1Q 1540   3.562   2.677   2.452
   30POPC   C1R 1541   3.597   2.727   2.597
   30POPC    CE 1542   2.984   2.953   0.718
   30POPC    OG 1543   2.897   2.984   0.828
   30POPC   C2A 1544   2.948   2.988   0.949
   30POPC    OH 1545   3.068   2.982   0.977
   30POPC   C2B 1546   2.840   3.004   1.051
   30POPC   C2C 1547   2.883   2.935   1.183
   30POPC   C2D 1548   2.773   2.927   1.286
   30POPC   C2E 1549   2.813   2.861   1.426
   30POPC   C2F 1550   2.704   2.856   1.536
   30POPC   C2G 1551   2.755   2.792   1.670
   30POPC   C2H 1552   2.640   2.770   1.769
   30POPC   C2I 1553   2.697   2.706   1.900
   30POPC   C2J 1554   2.585   2.659   1.993
   30POPC   C2K 1555   2.654   2.579   2.102
   30POPC   C2L 1556   2.555   2.538   2.213
   30POPC   C2M 1557   2.602   2.415   2.292
   30POPC   C2N 1558   2.520   2.404   2.418
   30POPC   C2O 1559   2.556   2.279   2.500
   30POPC   C2P 1560   2.468   2.264   2.623
   31POPC   CN1 1561   4.644   4.878   0.264
   31POPC   CN2 1562   4.483   4.777   0.413
   31POPC   CN3 1563   4.492   4.724   0.166
   31POPC   NTM 1564   4.504   4.833   0.273
   31POPC    CA 1565   4.406   4.951   0.233
   31POPC    CB 1566   4.258   4.900   0.235
   31POPC    OA 1567   4.227   4.852   0.366
   31POPC     P 1568   4.079   4.819   0.403
   31POPC    OB 1569   4.086   4.674   0.408
   31POPC    OC 1570   3.986   4.884   0.311
   31POPC    OD 1571   4.067   4.875   0.549
   31POPC    CC 1572   4.138   4.984   0.603
   31POPC    CD 1573   4.268   4.946   0.671
   31POPC    OE 1574   4.237   4.879   0.791
   31POPC   C1A 1575   4.337   4.809   0.845
   31POPC    OF 1576   4.449   4.789   0.796
   31POPC   C1B 1577   4.279   4.741   0.967
   31POPC   C1C 1578   4.379   4.664   1.059
   31POPC   C1D 1579   4.454   4.766   1.146
   31POPC   C1E 1580   4.525   4.706   1.266
   31POPC   C1F 1581   4.622   4.804   1.336
   31POPC   C1G 1582   4.662   4.736   1.471
   31POPC   C1H 1583   4.728   4.840   1.563
   31POPC   C1I 1584   4.782   4.752   1.677
   31POPC   C1J 1585   4.752   4.764   1.804
   31POPC   C1K 1586   4.657   4.853   1.870
   31POPC   C1L 1587   4.668   4.876   2.026
   31POPC   C1M 1588   4.795   4.960   2.049
   31POPC   C1N 1589   4.814   5.017   2.191
   31POPC   C1O 1590   4.780   4.924   2.312
   31POPC   C1P 1591   4.817   4.975   2.444
   31POPC   C1Q 1592   4.721   5.083   2.499
   31POPC   C1R 1593   4.780   5.150   2.629
   31POPC    CE 1594   4.361   5.061   0.686
   31POPC    OG 1595   4.306   5.165   0.769
   31POPC   C2A 1596   4.353   5.179   0.890
   31POPC    OH 1597   4.451   5.122   0.937
   31POPC   C2B 1598   4.272   5.280   0.965
   31POPC   C2C 1599   4.272   5.244   1.117
   31POPC   C2D 1600   4.177   5.326   1.199
   31POPC   C2E 1601   4.177   5.297   1.356
   31POPC   C2F 1602   4.083   5.383   1.444
   31POPC   C2G 1603   4.094   5.347   1.597
   31POPC   C2H 1604   3.987   5.420   1.679
   31POPC   C2I 1605   4.001   5.380   1.830
   31POPC   C2J 1606   3.883   5.430   1.914
   31POPC   C2K 1607   3.899   5.364   2.050
   31POPC   C2L 1608   3.795   5.417   2.150
   31POPC   C2M 1609   3.769   5.319   2.265
   31POPC   C2N 1610   3.696   5.392   2.376
   31POPC   C2O 1611   3.661   5.299   2.492
   31POPC   C2P 1612   3.579   5.371   2.600
   32POPC   CN1 1613   1.469   4.757   0.310
   32POPC   CN2 1614   1.256   4.701   0.409
   32POPC   CN3 1615   1.289   4.725   0.159
   32POPC   NTM 1616   1.324   4.780   0.298
   32POPC    CA 1617   1.293   4.935   0.298
   32POPC    CB 1618   1.139   4.958   0.277
   32POPC    OA 1619   1.067   4.893   0.383
   32POPC     P 1620   0.915   4.919   0.400
   32POPC    OB 1621   0.861   4.793   0.355
   32POPC    OC 1622   0.875   5.043   0.334
   32POPC    OD 1623   0.900   4.929   0.557
   32POPC    CC 1624   0.998   4.972   0.647
   32POPC    CD 1625   1.087   4.862   0.702
   32POPC    OE 1626   1.009   4.784   0.790
   32POPC   C1A 1627   1.060   4.664   0.819
   32POPC    OF 1628   1.161   4.612   0.770
   32POPC   C1B 1629   0.958   4.597   0.908
   32POPC   C1C 1630   0.998   4.460   0.971
   32POPC   C1D 1631   1.091   4.486   1.091
   32POPC   C1E 1632   1.108   4.368   1.184
   32POPC   C1F 1633   1.222   4.386   1.287
   32POPC   C1G 1634   1.204   4.271   1.391
   32POPC   C1H 1635   1.290   4.302   1.516
   32POPC   C1I 1636   1.280   4.169   1.594
   32POPC   C1J 1637   1.236   4.155   1.716
   32POPC   C1K 1638   1.175   4.253   1.806
   32POPC   C1L 1639   1.165   4.221   1.961
   32POPC   C1M 1640   1.309   4.229   2.015
   32POPC   C1N 1641   1.323   4.226   2.169
   32POPC   C1O 1642   1.232   4.126   2.249
   32POPC   C1P 1643   1.261   4.114   2.391
   32POPC   C1Q 1644   1.210   4.232   2.477
   32POPC   C1R 1645   1.266   4.223   2.625
   32POPC    CE 1646   1.214   4.913   0.759
   32POPC    OG 1647   1.191   5.001   0.871
   32POPC   C2A 1648   1.217   4.956   0.991
   32POPC    OH 1649   1.272   4.850   1.019
   32POPC   C2B 1650   1.172   5.055   1.094
   32POPC   C2C 1651   1.130   4.979   1.224
   32POPC   C2D 1652   1.063   5.066   1.326
   32POPC   C2E 1653   1.022   4.995   1.463
   32POPC   C2F 1654   0.957   5.084   1.573
   32POPC   C2G 1655   0.924   5.003   1.704
   32POPC   C2H 1656   0.843   5.088   1.802
   32POPC   C2I 1657   0.812   5.003   1.930
   32POPC   C2J 1658   0.711   5.073   2.022
   32POPC   C2K 1659   0.673   4.970   2.127
   32POPC   C2L 1660   0.583   5.031   2.235
   32POPC   C2M 1661   0.499   4.926   2.309
   32POPC   C2N 1662   0.443   4.987   2.435
   32POPC   C2O 1663   0.352   4.891   2.511
   32POPC   C2P 1664   0.289   4.955   2.633
   33POPC   CN1 1665   4.352   3.163   0.231
   33POPC   CN2 1666   4.537   3.204   0.380
   33POPC   CN3 1667   4.549   3.249   0.132
   33POPC   NTM 1668   4.499   3.155   0.241
   33POPC    CA 1669   4.548   3.008   0.207
   33POPC    CB 1670   4.705   3.003   0.210
   33POPC    OA 1671   4.750   3.040   0.341
   33POPC     P 1672   4.899   3.020   0.380
   33POPC    OB 1673   4.944   3.158   0.380
   33POPC    OC 1674   4.964   2.924   0.291
   33POPC    OD 1675   4.889   2.968   0.527
   33POPC    CC 1676   4.783   2.894   0.583
   33POPC    CD 1677   4.674   2.978   0.647
   33POPC    OE 1678   4.726   3.033   0.766
   33POPC   C1A 1679   4.658   3.136   0.815
   33POPC    OF 1680   4.561   3.192   0.764
   33POPC   C1B 1681   4.735   3.182   0.937
   33POPC   C1C 1682   4.668   3.292   1.025
   33POPC   C1D 1683   4.561   3.227   1.114
   33POPC   C1E 1684   4.515   3.312   1.230
   33POPC   C1F 1685   4.389   3.258   1.300
   33POPC   C1G 1686   4.375   3.340   1.433
   33POPC   C1H 1687   4.274   3.269   1.526
   33POPC   C1I 1688   4.255   3.374   1.637
   33POPC   C1J 1689   4.277   3.356   1.765
   33POPC   C1K 1690   4.333   3.241   1.836
   33POPC   C1L 1691   4.314   3.228   1.992
   33POPC   C1M 1692   4.165   3.196   2.013
   33POPC   C1N 1693   4.126   3.154   2.157
   33POPC   C1O 1694   4.189   3.233   2.276
   33POPC   C1P 1695   4.136   3.202   2.408
   33POPC   C1Q 1696   4.186   3.069   2.468
   33POPC   C1R 1697   4.106   3.031   2.599
   33POPC    CE 1698   4.547   2.904   0.663
   33POPC    OG 1699   4.560   2.789   0.749
   33POPC   C2A 1700   4.510   2.797   0.870
   33POPC    OH 1701   4.439   2.887   0.914
   33POPC   C2B 1702   4.549   2.676   0.950
   33POPC   C2C 1703   4.560   2.715   1.100
   33POPC   C2D 1704   4.619   2.607   1.186
   33POPC   C2E 1705   4.628   2.639   1.343
   33POPC   C2F 1706   4.684   2.528   1.435
   33POPC   C2G 1707   4.686   2.570   1.587
   33POPC   C2H 1708   4.759   2.466   1.673
   33POPC   C2I 1709   4.758   2.513   1.822
   33POPC   C2J 1710   4.850   2.427   1.909
   33POPC   C2K 1711   4.857   2.499   2.043
   33POPC   C2L 1712   4.935   2.416   2.147
   33POPC   C2M 1713   4.992   2.501   2.260
   33POPC   C2N 1714   5.034   2.411   2.374
   33POPC   C2O 1715   5.099   2.488   2.489
   33POPC   C2P 1716   5.149   2.396   2.599
   34POPC   CN1 1717   0.763   0.726   0.278
   34POPC   CN2 1718   0.688   0.526   0.389
   34POPC   CN3 1719   0.677   0.555   0.138
   34POPC   NTM 1720   0.659   0.622   0.275
   34POPC    CA 1721   0.515   0.688   0.278
   34POPC    CB 1722   0.405   0.576   0.266
   34POPC    OA 1723   0.420   0.485   0.376
   34POPC     P 1724   0.310   0.378   0.403
   34POPC    OB 1725   0.379   0.258   0.360
   34POPC    OC 1726   0.184   0.416   0.339
   34POPC    OD 1727   0.299   0.379   0.559
   34POPC    CC 1728   0.326   0.488   0.644
   34POPC    CD 1729   0.469   0.498   0.693
   34POPC    OE 1730   0.490   0.393   0.786
   34POPC   C1A 1731   0.617   0.365   0.811
   34POPC    OF 1732   0.717   0.414   0.756
   34POPC   C1B 1733   0.616   0.247   0.906
   34POPC   C1C 1734   0.753   0.202   0.966
   34POPC   C1D 1735   0.790   0.298   1.080
   34POPC   C1E 1736   0.899   0.247   1.172
   34POPC   C1F 1737   0.956   0.355   1.267
   34POPC   C1G 1738   1.043   0.277   1.372
   34POPC   C1H 1739   1.072   0.371   1.492
   34POPC   C1I 1740   1.177   0.289   1.569
   34POPC   C1J 1741   1.167   0.250   1.694
   34POPC   C1K 1742   1.055   0.263   1.788
   34POPC   C1L 1743   1.082   0.243   1.942
   34POPC   C1M 1744   1.162   0.366   1.988
   34POPC   C1N 1745   1.179   0.383   2.141
   34POPC   C1O 1746   1.209   0.255   2.226
   34POPC   C1P 1747   1.242   0.278   2.366
   34POPC   C1Q 1748   1.119   0.311   2.455
   34POPC   C1R 1749   1.165   0.358   2.599
   34POPC    CE 1750   0.504   0.633   0.743
   34POPC    OG 1751   0.424   0.672   0.856
   34POPC   C2A 1752   0.481   0.672   0.974
   34POPC    OH 1753   0.600   0.655   0.998
   34POPC   C2B 1754   0.378   0.699   1.080
   34POPC   C2C 1755   0.420   0.626   1.212
   34POPC   C2D 1756   0.314   0.628   1.318
   34POPC   C2E 1757   0.353   0.559   1.457
   34POPC   C2F 1758   0.247   0.565   1.571
   34POPC   C2G 1759   0.298   0.497   1.703
   34POPC   C2H 1760   0.185   0.486   1.807
   34POPC   C2I 1761   0.241   0.417   1.936
   34POPC   C2J 1762   0.128   0.381   2.034
   34POPC   C2K 1763   0.194   0.295   2.141
   34POPC   C2L 1764   0.096   0.264   2.255
   34POPC   C2M 1765   0.134   0.137   2.333
   34POPC   C2N 1766   0.057   0.134   2.462
   34POPC   C2O 1767   0.084   0.007   2.543
   34POPC   C2P 1768  -0.000  -0.000   2.670
   35POPC   CN1 1769   5.891   4.532   0.328
   35POPC   CN2 1770   5.817   4.746   0.413
   35POPC   CN3 1771   5.857   4.703   0.167
   35POPC   NTM 1772   5.906   4.678   0.310
   35POPC    CA 1773   6.059   4.719   0.317
   35POPC    CB 1774   6.074   4.873   0.289
   35POPC    OA 1775   5.998   4.945   0.388
   35POPC     P 1776   6.015   5.099   0.400
   35POPC    OB 1777   5.888   5.143   0.345
   35POPC    OC 1778   6.139   5.143   0.338
   35POPC    OD 1779   6.016   5.121   0.556
   35POPC    CC 1780   6.060   5.030   0.653
   35POPC    CD 1781   5.952   4.938   0.706
   35POPC    OE 1782   5.865   5.014   0.787
   35POPC   C1A 1783   5.747   4.957   0.812
   35POPC    OF 1784   5.704   4.851   0.765
   35POPC   C1B 1785   5.669   5.059   0.892
   35POPC   C1C 1786   5.531   5.013   0.950
   35POPC   C1D 1787   5.557   4.927   1.075
   35POPC   C1E 1788   5.435   4.907   1.163
   35POPC   C1F 1789   5.454   4.799   1.272
   35POPC   C1G 1790   5.333   4.814   1.369
   35POPC   C1H 1791   5.362   4.736   1.500
   35POPC   C1I 1792   5.225   4.741   1.570
   35POPC   C1J 1793   5.202   4.790   1.689
   35POPC   C1K 1794   5.291   4.861   1.781
   35POPC   C1L 1795   5.250   4.875   1.933
   35POPC   C1M 1796   5.263   4.735   1.994
   35POPC   C1N 1797   5.253   4.727   2.148
   35POPC   C1O 1798   5.144   4.815   2.219
   35POPC   C1P 1799   5.126   4.792   2.361
   35POPC   C1Q 1800   5.236   4.854   2.451
   35POPC   C1R 1801   5.223   4.804   2.600
   35POPC    CE 1802   6.007   4.816   0.772
   35POPC    OG 1803   6.088   4.849   0.887
   35POPC   C2A 1804   6.038   4.826   1.006
   35POPC    OH 1805   5.933   4.766   1.030
   35POPC   C2B 1806   6.128   4.881   1.112
   35POPC   C2C 1807   6.043   4.925   1.235
   35POPC   C2D 1808   6.121   5.001   1.338
   35POPC   C2E 1809   6.040   5.044   1.469
   35POPC   C2F 1810   6.119   5.118   1.580
   35POPC   C2G 1811   6.029   5.153   1.705
   35POPC   C2H 1812   6.104   5.243   1.804
   35POPC   C2I 1813   6.011   5.274   1.925
   35POPC   C2J 1814   6.070   5.383   2.016
   35POPC   C2K 1815   5.959   5.419   2.113
   35POPC   C2L 1816   6.009   5.517   2.221
   35POPC   C2M 1817   5.895   5.598   2.284
   35POPC   C2N 1818   5.946   5.663   2.411
   35POPC   C2O 1819   5.840   5.751   2.477
   35POPC   C2P 1820   5.894   5.824   2.600
   36POPC   CN1 1821   0.487   2.806   0.249
   36POPC   CN2 1822   0.299   2.885   0.378
   36POPC   CN3 1823   0.303   2.891   0.125
   36POPC   NTM 1824   0.383   2.911   0.254
   36POPC    CA 1825   0.450   3.054   0.248
   36POPC    CB 1826   0.339   3.164   0.246
   36POPC    OA 1827   0.258   3.152   0.364
   36POPC     P 1828   0.156   3.263   0.400
   36POPC    OB 1829   0.032   3.195   0.370
   36POPC    OC 1830   0.188   3.388   0.331
   36POPC    OD 1831   0.173   3.276   0.556
   36POPC    CC 1832   0.289   3.250   0.630
   36POPC    CD 1833   0.302   3.108   0.680
   36POPC    OE 1834   0.208   3.089   0.783
   36POPC   C1A 1835   0.181   2.962   0.812
   36POPC    OF 1836   0.223   2.861   0.754
   36POPC   C1B 1837   0.073   2.966   0.918
   36POPC   C1C 1838   0.034   2.830   0.984
   36POPC   C1D 1839   0.141   2.793   1.089
   36POPC   C1E 1840   0.098   2.686   1.187
   36POPC   C1F 1841   0.214   2.630   1.272
   36POPC   C1G 1842   0.147   2.546   1.385
   36POPC   C1H 1843   0.252   2.517   1.496
   36POPC   C1I 1844   0.177   2.414   1.583
   36POPC   C1J 1845   0.151   2.426   1.711
   36POPC   C1K 1846   0.174   2.539   1.801
   36POPC   C1L 1847   0.170   2.515   1.957
   36POPC   C1M 1848   0.296   2.435   1.992
   36POPC   C1N 1849   0.328   2.420   2.142
   36POPC   C1O 1850   0.209   2.392   2.240
   36POPC   C1P 1851   0.245   2.361   2.377
   36POPC   C1Q 1852   0.287   2.484   2.461
   36POPC   C1R 1853   0.348   2.441   2.600
   36POPC    CE 1854   0.442   3.072   0.716
   36POPC    OG 1855   0.493   3.153   0.824
   36POPC   C2A 1856   0.504   3.099   0.942
   36POPC    OH 1857   0.489   2.980   0.969
   36POPC   C2B 1858   0.542   3.203   1.043
   36POPC   C2C 1859   0.482   3.164   1.182
   36POPC   C2D 1860   0.495   3.271   1.286
   36POPC   C2E 1861   0.440   3.235   1.432
   36POPC   C2F 1862   0.458   3.342   1.543
   36POPC   C2G 1863   0.403   3.293   1.682
   36POPC   C2H 1864   0.403   3.408   1.785
   36POPC   C2I 1865   0.347   3.355   1.921
   36POPC   C2J 1866   0.322   3.469   2.020
   36POPC   C2K 1867   0.246   3.405   2.136
   36POPC   C2L 1868   0.227   3.505   2.251
   36POPC   C2M 1869   0.108   3.469   2.342
   36POPC   C2N 1870   0.118   3.548   2.470
   36POPC   C2O 1871   0.000   3.523   2.563
   36POPC   C2P 1872   0.006   3.609   2.689
   37POPC   CN1 1873   4.240   2.366   0.249
   37POPC   CN2 1874   4.102   2.204   0.364
   37POPC   CN3 1875   4.118   2.216   0.112
   37POPC   NTM 1876   4.111   2.295   0.242
   37POPC    CA 1877   3.992   2.400   0.229
   37POPC    CB 1878   3.856   2.323   0.213
   37POPC    OA 1879   3.836   2.240   0.329
   37POPC     P 1880   3.698   2.172   0.352
   37POPC    OB 1881   3.732   2.034   0.322
   37POPC    OC 1882   3.593   2.238   0.275
   37POPC    OD 1883   3.678   2.188   0.507
   37POPC    CC 1884   3.728   2.291   0.587
   37POPC    CD 1885   3.864   2.263   0.648
   37POPC    OE 1886   3.848   2.165   0.748
   37POPC   C1A 1887   3.960   2.103   0.786
   37POPC    OF 1888   4.072   2.117   0.737
   37POPC   C1B 1889   3.917   1.999   0.886
   37POPC   C1C 1890   4.031   1.922   0.961
   37POPC   C1D 1891   4.087   2.012   1.072
   37POPC   C1E 1892   4.170   1.939   1.176
   37POPC   C1F 1893   4.248   2.033   1.270
   37POPC   C1G 1894   4.301   1.943   1.386
   37POPC   C1H 1895   4.348   2.033   1.503
   37POPC   C1I 1896   4.419   1.931   1.594
   37POPC   C1J 1897   4.390   1.906   1.719
   37POPC   C1K 1898   4.280   1.957   1.802
   37POPC   C1L 1899   4.289   1.943   1.959
   37POPC   C1M 1900   4.398   2.041   2.005
   37POPC   C1N 1901   4.409   2.065   2.157
   37POPC   C1O 1902   4.395   1.941   2.251
   37POPC   C1P 1903   4.423   1.964   2.392
   37POPC   C1Q 1904   4.309   2.037   2.469
   37POPC   C1R 1905   4.356   2.080   2.613
   37POPC    CE 1906   3.934   2.386   0.693
   37POPC    OG 1907   3.861   2.455   0.797
   37POPC   C2A 1908   3.906   2.448   0.919
   37POPC    OH 1909   4.014   2.400   0.954
   37POPC   C2B 1910   3.809   2.511   1.014
   37POPC   C2C 1911   3.819   2.440   1.153
   37POPC   C2D 1912   3.711   2.480   1.249
   37POPC   C2E 1913   3.718   2.415   1.394
   37POPC   C2F 1914   3.611   2.458   1.498
   37POPC   C2G 1915   3.631   2.389   1.638
   37POPC   C2H 1916   3.513   2.419   1.732
   37POPC   C2I 1917   3.537   2.347   1.868
   37POPC   C2J 1918   3.413   2.353   1.958
   37POPC   C2K 1919   3.443   2.260   2.075
   37POPC   C2L 1920   3.332   2.267   2.181
   37POPC   C2M 1921   3.327   2.141   2.269
   37POPC   C2N 1922   3.243   2.170   2.391
   37POPC   C2O 1923   3.227   2.047   2.481
   37POPC   C2P 1924   3.135   2.074   2.600
   38POPC   CN1 1925   2.693   1.851   0.333
   38POPC   CN2 1926   2.903   1.935   0.417
   38POPC   CN3 1927   2.862   1.891   0.171
   38POPC   NTM 1928   2.839   1.842   0.315
   38POPC    CA 1929   2.885   1.691   0.323
   38POPC    CB 1930   3.040   1.682   0.295
   38POPC    OA 1931   3.109   1.760   0.393
   38POPC     P 1932   3.264   1.750   0.404
   38POPC    OB 1933   3.303   1.878   0.348
   38POPC    OC 1934   3.313   1.627   0.343
   38POPC    OD 1935   3.287   1.752   0.559
   38POPC    CC 1936   3.198   1.705   0.658
   38POPC    CD 1937   3.102   1.810   0.710
   38POPC    OE 1938   3.175   1.901   0.790
   38POPC   C1A 1939   3.114   2.016   0.814
   38POPC    OF 1940   3.006   2.055   0.767
   38POPC   C1B 1941   3.213   2.099   0.893
   38POPC   C1C 1942   3.161   2.235   0.950
   38POPC   C1D 1943   3.078   2.208   1.076
   38POPC   C1E 1944   3.053   2.329   1.163
   38POPC   C1F 1945   2.946   2.307   1.272
   38POPC   C1G 1946   2.957   2.430   1.368
   38POPC   C1H 1947   2.881   2.399   1.499
   38POPC   C1I 1948   2.881   2.537   1.568
   38POPC   C1J 1949   2.930   2.563   1.686
   38POPC   C1K 1950   3.004   2.477   1.779
   38POPC   C1L 1951   3.018   2.520   1.930
   38POPC   C1M 1952   2.878   2.503   1.993
   38POPC   C1N 1953   2.871   2.514   2.147
   38POPC   C1O 1954   2.955   2.627   2.216
   38POPC   C1P 1955   2.931   2.646   2.358
   38POPC   C1Q 1956   2.998   2.539   2.448
   38POPC   C1R 1957   2.948   2.551   2.598
   38POPC    CE 1958   2.983   1.750   0.777
   38POPC    OG 1959   3.019   1.672   0.893
   38POPC   C2A 1960   2.995   1.722   1.011
   38POPC    OH 1961   2.930   1.825   1.035
   38POPC   C2B 1962   3.054   1.635   1.117
   38POPC   C2C 1963   3.095   1.723   1.240
   38POPC   C2D 1964   3.174   1.650   1.343
   38POPC   C2E 1965   3.214   1.733   1.473
   38POPC   C2F 1966   3.293   1.659   1.584
   38POPC   C2G 1967   3.324   1.750   1.709
   38POPC   C2H 1968   3.417   1.680   1.808
   38POPC   C2I 1969   3.446   1.776   1.928
   38POPC   C2J 1970   3.557   1.722   2.019
   38POPC   C2K 1971   3.589   1.835   2.115
   38POPC   C2L 1972   3.689   1.790   2.223
   38POPC   C2M 1973   3.766   1.907   2.285
   38POPC   C2N 1974   3.834   1.860   2.411
   38POPC   C2O 1975   3.918   1.970   2.476
   38POPC   C2P 1976   3.993   1.920   2.599
   39POPC   CN1 1977   2.289   1.327   0.314
   39POPC   CN2 1978   2.207   1.535   0.406
   39POPC   CN3 1979   2.246   1.501   0.158
   39POPC   NTM 1980   2.298   1.474   0.300
   39POPC    CA 1981   2.449   1.520   0.307
   39POPC    CB 1982   2.457   1.675   0.283
   39POPC    OA 1983   2.381   1.742   0.385
   39POPC     P 1984   2.391   1.896   0.401
   39POPC    OB 1985   2.262   1.936   0.349
   39POPC    OC 1986   2.513   1.947   0.339
   39POPC    OD 1987   2.392   1.914   0.557
   39POPC    CC 1988   2.441   1.822   0.651
   39POPC    CD 1989   2.338   1.724   0.703
   39POPC    OE 1990   2.249   1.794   0.787
   39POPC   C1A 1991   2.133   1.732   0.811
   39POPC    OF 1992   2.094   1.626   0.762
   39POPC   C1B 1993   2.052   1.829   0.895
   39POPC   C1C 1994   1.917   1.775   0.953
   39POPC   C1D 1995   1.947   1.687   1.075
   39POPC   C1E 1996   1.827   1.660   1.164
   39POPC   C1F 1997   1.852   1.550   1.269
   39POPC   C1G 1998   1.731   1.557   1.368
   39POPC   C1H 1999   1.765   1.477   1.496
   39POPC   C1I 2000   1.628   1.474   1.567
   39POPC   C1J 2001   1.605   1.519   1.688
   39POPC   C1K 2002   1.692   1.591   1.781
   39POPC   C1L 2003   1.652   1.599   1.934
   39POPC   C1M 2004   1.671   1.458   1.991
   39POPC   C1N 2005   1.663   1.446   2.145
   39POPC   C1O 2006   1.551   1.527   2.219
   39POPC   C1P 2007   1.535   1.499   2.361
   39POPC   C1Q 2008   1.644   1.563   2.451
   39POPC   C1R 2009   1.634   1.508   2.599
   39POPC    CE 2010   2.399   1.603   0.765
   39POPC    OG 2011   2.479   1.636   0.880
   39POPC   C2A 2012   2.431   1.607   0.998
   39POPC    OH 2013   2.330   1.542   1.022
   39POPC   C2B 2014   2.521   1.663   1.105
   39POPC   C2C 2015   2.435   1.700   1.230
   39POPC   C2D 2016   2.510   1.776   1.335
   39POPC   C2E 2017   2.429   1.812   1.468
   39POPC   C2F 2018   2.506   1.887   1.580
   39POPC   C2G 2019   2.417   1.914   1.707
   39POPC   C2H 2020   2.489   2.004   1.807
   39POPC   C2I 2021   2.396   2.029   1.930
   39POPC   C2J 2022   2.451   2.137   2.023
   39POPC   C2K 2023   2.340   2.166   2.123
   39POPC   C2L 2024   2.387   2.263   2.233
   39POPC   C2M 2025   2.271   2.337   2.300
   39POPC   C2N 2026   2.321   2.401   2.427
   39POPC   C2O 2027   2.212   2.483   2.497
   39POPC   C2P 2028   2.265   2.554   2.622
   40POPC   CN1 2029   6.253   1.161   0.300
   40POPC   CN2 2030   6.050   1.174   0.431
   40POPC   CN3 2031   6.049   1.133   0.182
   40POPC   NTM 2032   6.113   1.210   0.297
   40POPC    CA 2033   6.110   1.364   0.261
   40POPC    CB 2034   5.961   1.412   0.250
   40POPC    OA 2035   5.896   1.390   0.375
   40POPC     P 2036   5.755   1.451   0.401
   40POPC    OB 2037   5.674   1.331   0.395
   40POPC    OC 2038   5.728   1.561   0.309
   40POPC    OD 2039   5.765   1.500   0.550
   40POPC    CC 2040   5.882   1.542   0.616
   40POPC    CD 2041   5.957   1.432   0.688
   40POPC    OE 2042   5.881   1.394   0.801
   40POPC   C1A 2043   5.913   1.277   0.855
   40POPC    OF 2044   5.995   1.195   0.811
   40POPC   C1B 2045   5.815   1.255   0.968
   40POPC   C1C 2046   5.840   1.131   1.060
   40POPC   C1D 2047   5.953   1.165   1.159
   40POPC   C1E 2048   5.963   1.071   1.277
   40POPC   C1F 2049   6.093   1.089   1.360
   40POPC   C1G 2050   6.070   1.007   1.492
   40POPC   C1H 2051   6.178   1.048   1.595
   40POPC   C1I 2052   6.157   0.942   1.705
   40POPC   C1J 2053   6.129   0.967   1.831
   40POPC   C1K 2054   6.101   1.094   1.898
   40POPC   C1L 2055   6.108   1.101   2.055
   40POPC   C1M 2056   6.257   1.092   2.091
   40POPC   C1N 2057   6.294   1.122   2.238
   40POPC   C1O 2058   6.200   1.065   2.350
   40POPC   C1P 2059   6.247   1.080   2.487
   40POPC   C1Q 2060   6.231   1.223   2.544
   40POPC   C1R 2061   6.306   1.238   2.682
   40POPC    CE 2062   6.098   1.467   0.717
   40POPC    OG 2063   6.109   1.582   0.804
   40POPC   C2A 2064   6.143   1.562   0.929
   40POPC    OH 2065   6.183   1.456   0.977
   40POPC   C2B 2066   6.133   1.689   1.007
   40POPC   C2C 2067   6.097   1.656   1.155
   40POPC   C2D 2068   6.063   1.777   1.237
   40POPC   C2E 2069   6.030   1.750   1.391
   40POPC   C2F 2070   6.000   1.873   1.480
   40POPC   C2G 2071   5.972   1.834   1.630
   40POPC   C2H 2072   5.923   1.955   1.711
   40POPC   C2I 2073   5.897   1.910   1.859
   40POPC   C2J 2074   5.825   2.019   1.939
   40POPC   C2K 2075   5.786   1.953   2.070
   40POPC   C2L 2076   5.726   2.056   2.168
   40POPC   C2M 2077   5.636   1.990   2.274
   40POPC   C2N 2078   5.611   2.089   2.385
   40POPC   C2O 2079   5.517   2.034   2.492
   40POPC   C2P 2080   5.485   2.138   2.600
   41POPC   CN1 2081   5.622   5.918   0.281
   41POPC   CN2 2082   5.503   5.761   0.421
   41POPC   CN3 2083   5.534   5.726   0.172
   41POPC   NTM 2084   5.506   5.827   0.284
   41POPC    CA 2085   5.374   5.906   0.245
   41POPC    CB 2086   5.253   5.807   0.241
   41POPC    OA 2087   5.238   5.746   0.370
   41POPC     P 2088   5.110   5.662   0.401
   41POPC    OB 2089   5.167   5.528   0.400
   41POPC    OC 2090   5.002   5.695   0.308
   41POPC    OD 2091   5.077   5.704   0.548
   41POPC    CC 2092   5.106   5.828   0.608
   41POPC    CD 2093   5.240   5.834   0.679
   41POPC    OE 2094   5.232   5.755   0.795
   41POPC   C1A 2095   5.349   5.722   0.849
   41POPC    OF 2096   5.461   5.744   0.803
   41POPC   C1B 2097   5.316   5.633   0.967
   41POPC   C1C 2098   5.435   5.591   1.059
   41POPC   C1D 2099   5.468   5.708   1.153
   41POPC   C1E 2100   5.554   5.672   1.272
   41POPC   C1F 2101   5.611   5.793   1.348
   41POPC   C1G 2102   5.669   5.737   1.482
   41POPC   C1H 2103   5.694   5.854   1.580
   41POPC   C1I 2104   5.773   5.784   1.692
   41POPC   C1J 2105   5.739   5.780   1.818
   41POPC   C1K 2106   5.617   5.828   1.885
   41POPC   C1L 2107   5.617   5.846   2.042
   41POPC   C1M 2108   5.707   5.967   2.071
   41POPC   C1N 2109   5.703   6.021   2.216
   41POPC   C1O 2110   5.702   5.917   2.333
   41POPC   C1P 2111   5.716   5.971   2.467
   41POPC   C1Q 2112   5.588   6.038   2.523
   41POPC   C1R 2113   5.618   6.115   2.657
   41POPC    CE 2114   5.287   5.973   0.700
   41POPC    OG 2115   5.198   6.048   0.785
   41POPC   C2A 2116   5.235   6.073   0.908
   41POPC    OH 2117   5.346   6.050   0.956
   41POPC   C2B 2118   5.123   6.136   0.985
   41POPC   C2C 2119   5.134   6.095   1.135
   41POPC   C2D 2120   5.015   6.136   1.217
   41POPC   C2E 2121   5.022   6.101   1.373
   41POPC   C2F 2122   4.903   6.146   1.461
   41POPC   C2G 2123   4.923   6.109   1.613
   41POPC   C2H 2124   4.796   6.137   1.694
   41POPC   C2I 2125   4.821   6.098   1.844
   41POPC   C2J 2126   4.691   6.100   1.926
   41POPC   C2K 2127   4.727   6.038   2.060
   41POPC   C2L 2128   4.609   6.047   2.158
   41POPC   C2M 2129   4.617   5.942   2.269
   41POPC   C2N 2130   4.522   5.979   2.380
   41POPC   C2O 2131   4.518   5.876   2.492
   41POPC   C2P 2132   4.416   5.910   2.600
   42POPC   CN1 2133   3.285   0.989   0.328
   42POPC   CN2 2134   3.060   0.970   0.414
   42POPC   CN3 2135   3.110   0.998   0.167
   42POPC   NTM 2136   3.147   1.039   0.310
   42POPC    CA 2137   3.145   1.198   0.317
   42POPC    CB 2138   3.000   1.250   0.290
   42POPC    OA 2139   2.911   1.194   0.388
   42POPC     P 2140   2.765   1.248   0.400
   42POPC    OB 2141   2.692   1.136   0.346
   42POPC    OC 2142   2.753   1.380   0.338
   42POPC    OD 2143   2.744   1.254   0.556
   42POPC    CC 2144   2.843   1.275   0.653
   42POPC    CD 2145   2.907   1.148   0.707
   42POPC    OE 2146   2.811   1.082   0.787
   42POPC   C1A 2147   2.837   0.954   0.812
   42POPC    OF 2148   2.929   0.886   0.765
   42POPC   C1B 2149   2.719   0.902   0.892
   42POPC   C1C 2150   2.731   0.758   0.950
   42POPC   C1D 2151   2.820   0.762   1.075
   42POPC   C1E 2152   2.810   0.639   1.163
   42POPC   C1F 2153   2.919   0.631   1.272
   42POPC   C1G 2154   2.874   0.516   1.369
   42POPC   C1H 2155   2.957   0.526   1.500
   42POPC   C1I 2156   2.919   0.394   1.569
   42POPC   C1J 2157   2.865   0.384   1.689
   42POPC   C1K 2158   2.819   0.488   1.781
   42POPC   C1L 2159   2.795   0.451   1.933
   42POPC   C1M 2160   2.934   0.429   1.994
   42POPC   C1N 2161   2.938   0.417   2.148
   42POPC   C1O 2162   2.827   0.333   2.218
   42POPC   C1P 2163   2.845   0.310   2.361
   42POPC   C1Q 2164   2.812   0.432   2.451
   42POPC   C1R 2165   2.857   0.407   2.600
   42POPC    CE 2166   3.038   1.171   0.772
   42POPC    OG 2167   3.026   1.257   0.887
   42POPC   C2A 2168   3.036   1.203   1.006
   42POPC    OH 2169   3.069   1.087   1.031
   42POPC   C2B 2170   3.004   1.304   1.112
   42POPC   C2C 2171   2.941   1.232   1.235
   42POPC   C2D 2172   2.886   1.326   1.338
   42POPC   C2E 2173   2.825   1.258   1.469
   42POPC   C2F 2174   2.772   1.353   1.580
   42POPC   C2G 2175   2.717   1.275   1.705
   42POPC   C2H 2176   2.647   1.369   1.804
   42POPC   C2I 2177   2.594   1.286   1.925
   42POPC   C2J 2178   2.503   1.370   2.016
   42POPC   C2K 2179   2.441   1.271   2.114
   42POPC   C2L 2180   2.358   1.344   2.221
   42POPC   C2M 2181   2.252   1.253   2.284
   42POPC   C2N 2182   2.201   1.318   2.411
   42POPC   C2O 2183   2.089   1.237   2.477
   42POPC   C2P 2184   2.032   1.307   2.600
   43POPC   CN1 2185   0.732   2.086   0.340
   43POPC   CN2 2186   0.571   2.242   0.430
   43POPC   CN3 2187   0.609   2.214   0.182
   43POPC   NTM 2188   0.674   2.221   0.320
   43POPC    CA 2189   0.789   2.329   0.315
   43POPC    CB 2190   0.727   2.470   0.286
   43POPC    OA 2191   0.633   2.502   0.390
   43POPC     P 2192   0.575   2.646   0.400
   43POPC    OB 2193   0.439   2.622   0.356
   43POPC    OC 2194   0.659   2.742   0.328
   43POPC    OD 2195   0.576   2.673   0.555
   43POPC    CC 2196   0.664   2.617   0.649
   43POPC    CD 2197   0.618   2.487   0.711
   43POPC    OE 2198   0.510   2.516   0.798
   43POPC   C1A 2199   0.436   2.411   0.832
   43POPC    OF 2200   0.445   2.296   0.789
   43POPC   C1B 2201   0.324   2.467   0.918
   43POPC   C1C 2202   0.230   2.363   0.987
   43POPC   C1D 2203   0.301   2.305   1.110
   43POPC   C1E 2204   0.210   2.233   1.207
   43POPC   C1F 2205   0.286   2.152   1.315
   43POPC   C1G 2206   0.178   2.112   1.421
   43POPC   C1H 2207   0.250   2.062   1.549
   43POPC   C1I 2208   0.133   2.004   1.630
   43POPC   C1J 2209   0.097   2.041   1.750
   43POPC   C1K 2210   0.148   2.150   1.835
   43POPC   C1L 2211   0.115   2.149   1.989
   43POPC   C1M 2212   0.198   2.035   2.050
   43POPC   C1N 2213   0.203   2.030   2.204
   43POPC   C1O 2214   0.070   2.058   2.283
   43POPC   C1P 2215   0.075   2.034   2.427
   43POPC   C1Q 2216   0.148   2.145   2.507
   43POPC   C1R 2217   0.170   2.101   2.657
   43POPC    CE 2218   0.728   2.409   0.772
   43POPC    OG 2219   0.791   2.481   0.881
   43POPC   C2A 2220   0.766   2.442   1.003
   43POPC    OH 2221   0.705   2.340   1.036
   43POPC   C2B 2222   0.826   2.538   1.101
   43POPC   C2C 2223   0.739   2.540   1.230
   43POPC   C2D 2224   0.778   2.649   1.327
   43POPC   C2E 2225   0.696   2.654   1.464
   43POPC   C2F 2226   0.737   2.761   1.568
   43POPC   C2G 2227   0.650   2.754   1.699
   43POPC   C2H 2228   0.680   2.873   1.792
   43POPC   C2I 2229   0.591   2.861   1.920
   43POPC   C2J 2230   0.597   2.988   2.005
   43POPC   C2K 2231   0.489   2.971   2.111
   43POPC   C2L 2232   0.494   3.086   2.214
   43POPC   C2M 2233   0.360   3.105   2.286
   43POPC   C2N 2234   0.382   3.192   2.408
   43POPC   C2O 2235   0.252   3.222   2.482
   43POPC   C2P 2236   0.273   3.316   2.600
   44POPC   CN1 2237   2.640   3.676   0.336
   44POPC   CN2 2238   2.825   3.547   0.423
   44POPC   CN3 2239   2.773   3.562   0.176
   44POPC   NTM 2240   2.715   3.550   0.317
   44POPC    CA 2241   2.616   3.426   0.319
   44POPC    CB 2242   2.697   3.295   0.290
   44POPC    OA 2243   2.798   3.279   0.391
   44POPC     P 2244   2.876   3.145   0.401
   44POPC    OB 2245   3.005   3.187   0.350
   44POPC    OC 2246   2.804   3.037   0.335
   44POPC    OD 2247   2.886   3.123   0.557
   44POPC    CC 2248   2.794   3.168   0.653
   44POPC    CD 2249   2.825   3.305   0.710
   44POPC    OE 2250   2.938   3.294   0.793
   44POPC   C1A 2251   2.999   3.409   0.822
   44POPC    OF 2252   2.972   3.521   0.777
   44POPC   C1B 2253   3.121   3.372   0.904
   44POPC   C1C 2254   3.202   3.490   0.966
   44POPC   C1D 2255   3.128   3.540   1.091
   44POPC   C1E 2256   3.212   3.627   1.183
   44POPC   C1F 2257   3.131   3.700   1.292
   44POPC   C1G 2258   3.235   3.758   1.392
   44POPC   C1H 2259   3.163   3.799   1.522
   44POPC   C1I 2260   3.274   3.875   1.596
   44POPC   C1J 2261   3.319   3.847   1.716
   44POPC   C1K 2262   3.288   3.735   1.805
   44POPC   C1L 2263   3.326   3.744   1.958
   44POPC   C1M 2264   3.231   3.848   2.020
   44POPC   C1N 2265   3.232   3.857   2.174
   44POPC   C1O 2266   3.370   3.849   2.247
   44POPC   C1P 2267   3.368   3.876   2.390
   44POPC   C1Q 2268   3.315   3.758   2.476
   44POPC   C1R 2269   3.293   3.803   2.626
   44POPC    CE 2270   2.707   3.368   0.775
   44POPC    OG 2271   2.659   3.291   0.887
   44POPC   C2A 2272   2.683   3.337   1.008
   44POPC    OH 2273   2.730   3.447   1.036
   44POPC   C2B 2274   2.641   3.236   1.110
   44POPC   C2C 2275   2.733   3.249   1.236
   44POPC   C2D 2276   2.714   3.139   1.336
   44POPC   C2E 2277   2.802   3.150   1.469
   44POPC   C2F 2278   2.781   3.041   1.577
   44POPC   C2G 2279   2.870   3.063   1.705
   44POPC   C2H 2280   2.862   2.944   1.801
   44POPC   C2I 2281   2.953   2.971   1.925
   44POPC   C2J 2282   2.969   2.847   2.013
   44POPC   C2K 2283   3.078   2.882   2.113
   44POPC   C2L 2284   3.094   2.771   2.218
   44POPC   C2M 2285   3.232   2.772   2.285
   44POPC   C2N 2286   3.227   2.687   2.409
   44POPC   C2O 2287   3.363   2.677   2.479
   44POPC   C2P 2288   3.361   2.584   2.599
   45POPC   CN1 2289   2.955   2.371   0.328
   45POPC   CN2 2290   2.790   2.233   0.439
   45POPC   CN3 2291   2.823   2.232   0.188
   45POPC   NTM 2292   2.818   2.317   0.315
   45POPC    CA 2293   2.715   2.435   0.290
   45POPC    CB 2294   2.571   2.376   0.268
   45POPC    OA 2295   2.533   2.301   0.384
   45POPC     P 2296   2.387   2.252   0.400
   45POPC    OB 2297   2.404   2.110   0.378
   45POPC    OC 2298   2.296   2.328   0.315
   45POPC    OD 2299   2.359   2.278   0.553
   45POPC    CC 2300   2.417   2.377   0.633
   45POPC    CD 2301   2.544   2.334   0.704
   45POPC    OE 2302   2.509   2.243   0.806
   45POPC   C1A 2303   2.609   2.170   0.853
   45POPC    OF 2304   2.726   2.167   0.812
   45POPC   C1B 2305   2.547   2.076   0.954
   45POPC   C1C 2306   2.645   1.988   1.038
   45POPC   C1D 2307   2.705   2.075   1.151
   45POPC   C1E 2308   2.771   1.997   1.262
   45POPC   C1F 2309   2.855   2.084   1.358
   45POPC   C1G 2310   2.889   1.992   1.480
   45POPC   C1H 2311   2.940   2.081   1.597
   45POPC   C1I 2312   2.991   1.974   1.696
   45POPC   C1J 2313   2.951   1.959   1.819
   45POPC   C1K 2314   2.844   2.028   1.893
   45POPC   C1L 2315   2.841   2.019   2.051
   45POPC   C1M 2316   2.959   2.104   2.100
   45POPC   C1N 2317   2.962   2.133   2.252
   45POPC   C1O 2318   2.926   2.016   2.349
   45POPC   C1P 2319   2.948   2.041   2.491
   45POPC   C1Q 2320   2.841   2.131   2.557
   45POPC   C1R 2321   2.884   2.174   2.703
   45POPC    CE 2322   2.626   2.450   0.749
   45POPC    OG 2323   2.557   2.532   0.845
   45POPC   C2A 2324   2.593   2.524   0.971
   45POPC    OH 2325   2.691   2.464   1.015
   45POPC   C2B 2326   2.499   2.603   1.057
   45POPC   C2C 2327   2.490   2.537   1.198
   45POPC   C2D 2328   2.383   2.595   1.285
   45POPC   C2E 2329   2.373   2.535   1.433
   45POPC   C2F 2330   2.266   2.597   1.527
   45POPC   C2G 2331   2.267   2.532   1.670
   45POPC   C2H 2332   2.149   2.580   1.755
   45POPC   C2I 2333   2.155   2.512   1.895
   45POPC   C2J 2334   2.027   2.537   1.976
   45POPC   C2K 2335   2.037   2.446   2.098
   45POPC   C2L 2336   1.922   2.472   2.196
   45POPC   C2M 2337   1.895   2.352   2.288
   45POPC   C2N 2338   1.808   2.396   2.403
   45POPC   C2O 2339   1.771   2.280   2.496
   45POPC   C2P 2340   1.676   2.324   2.607
   46POPC   CN1 2341   1.875   4.149   0.314
   46POPC   CN2 2342   1.986   4.334   0.422
   46POPC   CN3 2343   1.967   4.314   0.171
   46POPC   NTM 2344   1.990   4.240   0.303
   46POPC    CA 2345   2.124   4.156   0.289
   46POPC    CB 2346   2.246   4.254   0.269
   46POPC    OA 2347   2.254   4.342   0.382
   46POPC     P 2348   2.379   4.432   0.400
   46POPC    OB 2349   2.322   4.562   0.368
   46POPC    OC 2350   2.492   4.382   0.322
   46POPC    OD 2351   2.405   4.424   0.555
   46POPC    CC 2352   2.374   4.315   0.639
   46POPC    CD 2353   2.236   4.322   0.702
   46POPC    OE 2354   2.238   4.425   0.799
   46POPC   C1A 2355   2.118   4.468   0.838
   46POPC    OF 2356   2.008   4.434   0.793
   46POPC   C1B 2357   2.145   4.581   0.936
   46POPC   C1C 2358   2.022   4.640   1.011
   46POPC   C1D 2359   1.983   4.545   1.126
   46POPC   C1E 2360   1.892   4.605   1.230
   46POPC   C1F 2361   1.832   4.502   1.328
   46POPC   C1G 2362   1.766   4.585   1.443
   46POPC   C1H 2363   1.737   4.492   1.562
   46POPC   C1I 2364   1.652   4.583   1.653
   46POPC   C1J 2365   1.679   4.615   1.777
   46POPC   C1K 2366   1.797   4.585   1.858
   46POPC   C1L 2367   1.789   4.601   2.015
   46POPC   C1M 2368   1.699   4.488   2.066
   46POPC   C1N 2369   1.696   4.467   2.218
   46POPC   C1O 2370   1.691   4.594   2.310
   46POPC   C1P 2371   1.669   4.570   2.452
   46POPC   C1Q 2372   1.795   4.519   2.527
   46POPC   C1R 2373   1.758   4.472   2.673
   46POPC    CE 2374   2.188   4.191   0.751
   46POPC    OG 2375   2.274   4.137   0.855
   46POPC   C2A 2376   2.230   4.140   0.978
   46POPC    OH 2377   2.117   4.170   1.015
   46POPC   C2B 2378   2.338   4.096   1.072
   46POPC   C2C 2379   2.320   4.168   1.209
   46POPC   C2D 2380   2.435   4.148   1.304
   46POPC   C2E 2381   2.419   4.216   1.448
   46POPC   C2F 2382   2.534   4.193   1.550
   46POPC   C2G 2383   2.506   4.261   1.689
   46POPC   C2H 2384   2.629   4.253   1.780
   46POPC   C2I 2385   2.596   4.324   1.916
   46POPC   C2J 2386   2.721   4.341   2.003
   46POPC   C2K 2387   2.678   4.431   2.118
   46POPC   C2L 2388   2.791   4.445   2.222
   46POPC   C2M 2389   2.777   4.571   2.307
   46POPC   C2N 2390   2.867   4.560   2.428
   46POPC   C2O 2391   2.864   4.686   2.515
   46POPC   C2P 2392   2.961   4.677   2.632
   47POPC   CN1 2393   1.110   0.895   0.230
   47POPC   CN2 2394   0.917   0.903   0.374
   47POPC   CN3 2395   0.899   0.887   0.123
   47POPC   NTM 2396   0.974   0.949   0.241
   47POPC    CA 2397   0.975   1.106   0.221
   47POPC    CB 2398   0.829   1.161   0.224
   47POPC    OA 2399   0.770   1.129   0.351
   47POPC     P 2400   0.634   1.192   0.391
   47POPC    OB 2401   0.547   1.077   0.379
   47POPC    OC 2402   0.607   1.312   0.313
   47POPC    OD 2403   0.655   1.225   0.544
   47POPC    CC 2404   0.778   1.255   0.606
   47POPC    CD 2405   0.852   1.135   0.662
   47POPC    OE 2406   0.781   1.089   0.775
   47POPC   C1A 2407   0.811   0.966   0.814
   47POPC    OF 2408   0.886   0.886   0.757
   47POPC   C1B 2409   0.719   0.936   0.930
   47POPC   C1C 2410   0.744   0.803   1.008
   47POPC   C1D 2411   0.864   0.822   1.102
   47POPC   C1E 2412   0.877   0.716   1.210
   47POPC   C1F 2413   1.012   0.719   1.285
   47POPC   C1G 2414   0.994   0.626   1.409
   47POPC   C1H 2415   1.109   0.651   1.509
   47POPC   C1I 2416   1.090   0.536   1.608
   47POPC   C1J 2417   1.071   0.548   1.737
   47POPC   C1K 2418   1.052   0.669   1.819
   47POPC   C1L 2419   1.070   0.659   1.976
   47POPC   C1M 2420   1.220   0.640   2.001
   47POPC   C1N 2421   1.266   0.653   2.148
   47POPC   C1O 2422   1.177   0.589   2.259
   47POPC   C1P 2423   1.233   0.588   2.393
   47POPC   C1Q 2424   1.227   0.725   2.466
   47POPC   C1R 2425   1.311   0.722   2.599
   47POPC    CE 2426   0.996   1.162   0.685
   47POPC    OG 2427   1.017   1.266   0.782
   47POPC   C2A 2428   1.058   1.232   0.901
   47POPC    OH 2429   1.095   1.120   0.936
   47POPC   C2B 2430   1.058   1.351   0.993
   47POPC   C2C 2431   1.030   1.304   1.138
   47POPC   C2D 2432   1.006   1.417   1.235
   47POPC   C2E 2433   0.982   1.375   1.387
   47POPC   C2F 2434   0.962   1.490   1.490
   47POPC   C2G 2435   0.942   1.437   1.637
   47POPC   C2H 2436   0.904   1.550   1.732
   47POPC   C2I 2437   0.885   1.492   1.876
   47POPC   C2J 2438   0.823   1.595   1.971
   47POPC   C2K 2439   0.789   1.517   2.098
   47POPC   C2L 2440   0.739   1.611   2.209
   47POPC   C2M 2441   0.653   1.539   2.313
   47POPC   C2N 2442   0.639   1.627   2.435
   47POPC   C2O 2443   0.549   1.565   2.542
   47POPC   C2P 2444   0.529   1.658   2.661
   48POPC   CN1 2445   4.134   1.998   0.266
   48POPC   CN2 2446   4.339   1.948   0.384
   48POPC   CN3 2447   4.324   1.952   0.131
   48POPC   NTM 2448   4.254   1.913   0.262
   48POPC    CA 2449   4.213   1.760   0.251
   48POPC    CB 2450   4.341   1.671   0.239
   48POPC    OA 2451   4.423   1.692   0.355
   48POPC     P 2452   4.545   1.598   0.381
   48POPC    OB 2453   4.654   1.689   0.350
   48POPC    OC 2454   4.532   1.473   0.307
   48POPC    OD 2455   4.538   1.576   0.536
   48POPC    CC 2456   4.422   1.578   0.616
   48POPC    CD 2457   4.387   1.713   0.674
   48POPC    OE 2458   4.482   1.744   0.774
   48POPC   C1A 2459   4.487   1.872   0.809
   48POPC    OF 2460   4.426   1.966   0.758
   48POPC   C1B 2461   4.599   1.882   0.910
   48POPC   C1C 2462   4.618   2.019   0.982
   48POPC   C1D 2463   4.511   2.032   1.092
   48POPC   C1E 2464   4.539   2.141   1.194
   48POPC   C1F 2465   4.419   2.172   1.287
   48POPC   C1G 2466   4.476   2.262   1.401
   48POPC   C1H 2467   4.373   2.267   1.517
   48POPC   C1I 2468   4.433   2.377   1.606
   48POPC   C1J 2469   4.467   2.364   1.732
   48POPC   C1K 2470   4.468   2.245   1.818
   48POPC   C1L 2471   4.475   2.262   1.974
   48POPC   C1M 2472   4.339   2.318   2.017
   48POPC   C1N 2473   4.312   2.320   2.170
   48POPC   C1O 2474   4.428   2.364   2.264
   48POPC   C1P 2475   4.393   2.382   2.405
   48POPC   C1Q 2476   4.377   2.249   2.484
   48POPC   C1R 2477   4.316   2.275   2.627
   48POPC    CE 2478   4.245   1.723   0.717
   48POPC    OG 2479   4.214   1.629   0.822
   48POPC   C2A 2480   4.199   1.676   0.943
   48POPC    OH 2481   4.195   1.794   0.976
   48POPC   C2B 2482   4.184   1.563   1.041
   48POPC   C2C 2483   4.243   1.605   1.179
   48POPC   C2D 2484   4.253   1.492   1.277
   48POPC   C2E 2485   4.307   1.531   1.423
   48POPC   C2F 2486   4.313   1.418   1.528
   48POPC   C2G 2487   4.366   1.468   1.668
   48POPC   C2H 2488   4.389   1.351   1.764
   48POPC   C2I 2489   4.442   1.407   1.901
   48POPC   C2J 2490   4.491   1.295   1.993
   48POPC   C2K 2491   4.560   1.365   2.109
   48POPC   C2L 2492   4.601   1.265   2.218
   48POPC   C2M 2493   4.715   1.317   2.306
   48POPC   C2N 2494   4.725   1.231   2.430
   48POPC   C2O 2495   4.841   1.272   2.520
   48POPC   C2P 2496   4.856   1.180   2.641
   49POPC   CN1 2497   5.023   4.576   0.239
   49POPC   CN2 2498   5.070   4.756   0.393
   49POPC   CN3 2499   5.039   4.793   0.144
   49POPC   NTM 2500   5.097   4.703   0.252
   49POPC    CA 2501   5.251   4.680   0.219
   49POPC    CB 2502   5.327   4.816   0.226
   49POPC    OA 2503   5.313   4.871   0.359
   49POPC     P 2504   5.399   4.993   0.401
   49POPC    OB 2505   5.298   5.096   0.403
   49POPC    OC 2506   5.516   5.008   0.315
   49POPC    OD 2507   5.439   4.956   0.549
   49POPC    CC 2508   5.456   4.827   0.601
   49POPC    CD 2509   5.330   4.768   0.663
   49POPC    OE 2510   5.304   4.836   0.783
   49POPC   C1A 2511   5.180   4.822   0.831
   49POPC    OF 2512   5.086   4.763   0.776
   49POPC   C1B 2513   5.173   4.909   0.954
   49POPC   C1C 2514   5.044   4.899   1.041
   49POPC   C1D 2515   5.051   4.771   1.126
   49POPC   C1E 2516   4.953   4.766   1.241
   49POPC   C1F 2517   4.942   4.628   1.308
   49POPC   C1G 2518   4.861   4.650   1.441
   49POPC   C1H 2519   4.877   4.526   1.531
   49POPC   C1I 2520   4.773   4.555   1.641
   49POPC   C1J 2521   4.798   4.563   1.770
   49POPC   C1K 2522   4.925   4.559   1.842
   49POPC   C1L 2523   4.925   4.532   1.997
   49POPC   C1M 2524   4.885   4.385   2.015
   49POPC   C1N 2525   4.902   4.327   2.158
   49POPC   C1O 2526   4.860   4.417   2.279
   49POPC   C1P 2527   4.861   4.353   2.409
   49POPC   C1Q 2528   5.002   4.334   2.470
   49POPC   C1R 2529   4.997   4.243   2.599
   49POPC    CE 2530   5.337   4.620   0.675
   49POPC    OG 2531   5.444   4.577   0.762
   49POPC   C2A 2532   5.412   4.534   0.882
   49POPC    OH 2533   5.299   4.511   0.924
   49POPC   C2B 2534   5.537   4.510   0.962
   49POPC   C2C 2535   5.505   4.535   1.113
   49POPC   C2D 2536   5.627   4.536   1.201
   49POPC   C2E 2537   5.601   4.555   1.357
   49POPC   C2F 2538   5.724   4.551   1.451
   49POPC   C2G 2539   5.686   4.568   1.603
   49POPC   C2H 2540   5.810   4.583   1.691
   49POPC   C2I 2541   5.766   4.601   1.839
   49POPC   C2J 2542   5.884   4.641   1.929
   49POPC   C2K 2543   5.822   4.677   2.063
   49POPC   C2L 2544   5.930   4.705   2.169
   49POPC   C2M 2545   5.879   4.793   2.284
   49POPC   C2N 2546   5.977   4.786   2.398
   49POPC   C2O 2547   5.938   4.876   2.515
   49POPC   C2P 2548   6.041   4.875   2.627
   50POPC   CN1 2549   3.704   5.268   0.279
   50POPC   CN2 2550   3.871   5.401   0.392
   50POPC   CN3 2551   3.846   5.398   0.140
   50POPC   NTM 2552   3.844   5.316   0.269
   50POPC    CA 2553   3.942   5.193   0.250
   50POPC    CB 2554   4.089   5.245   0.232
   50POPC    OA 2555   4.126   5.321   0.348
   50POPC     P 2556   4.274   5.364   0.368
   50POPC    OB 2557   4.264   5.506   0.342
   50POPC    OC 2558   4.364   5.282   0.287
   50POPC    OD 2559   4.296   5.341   0.522
   50POPC    CC 2560   4.230   5.246   0.602
   50POPC    CD 2561   4.103   5.296   0.668
   50POPC    OE 2562   4.139   5.388   0.769
   50POPC   C1A 2563   4.041   5.467   0.811
   50POPC    OF 2564   3.926   5.473   0.766
   50POPC   C1B 2565   4.103   5.560   0.912
   50POPC   C1C 2566   4.006   5.654   0.991
   50POPC   C1D 2567   3.939   5.573   1.103
   50POPC   C1E 2568   3.873   5.656   1.210
   50POPC   C1F 2569   3.782   5.575   1.305
   50POPC   C1G 2570   3.748   5.671   1.424
   50POPC   C1H 2571   3.690   5.588   1.541
   50POPC   C1I 2572   3.640   5.699   1.635
   50POPC   C1J 2573   3.677   5.715   1.760
   50POPC   C1K 2574   3.778   5.643   1.839
   50POPC   C1L 2575   3.776   5.656   1.996
   50POPC   C1M 2576   3.653   5.577   2.044
   50POPC   C1N 2577   3.643   5.552   2.196
   50POPC   C1O 2578   3.681   5.670   2.292
   50POPC   C1P 2579   3.653   5.649   2.433
   50POPC   C1Q 2580   3.754   5.556   2.505
   50POPC   C1R 2581   3.704   5.518   2.650
   50POPC    CE 2582   4.014   5.186   0.713
   50POPC    OG 2583   4.077   5.103   0.813
   50POPC   C2A 2584   4.037   5.115   0.937
   50POPC    OH 2585   3.940   5.180   0.976
   50POPC   C2B 2586   4.124   5.034   1.028
   50POPC   C2C 2587   4.131   5.103   1.167
   50POPC   C2D 2588   4.233   5.042   1.260
   50POPC   C2E 2589   4.241   5.105   1.406
   50POPC   C2F 2590   4.341   5.041   1.506
   50POPC   C2G 2591   4.338   5.110   1.647
   50POPC   C2H 2592   4.451   5.058   1.737
   50POPC   C2I 2593   4.444   5.130   1.876
   50POPC   C2J 2594   4.568   5.101   1.961
   50POPC   C2K 2595   4.557   5.195   2.080
   50POPC   C2L 2596   4.668   5.167   2.183
   50POPC   C2M 2597   4.698   5.288   2.273
   50POPC   C2N 2598   4.779   5.242   2.392
   50POPC   C2O 2599   4.818   5.359   2.484
   50POPC   C2P 2600   4.907   5.313   2.599
   51POPC   CN1 2601   1.643   6.058   0.227
   51POPC   CN2 2602   1.786   6.186   0.373
   51POPC   CN3 2603   1.775   6.226   0.123
   51POPC   NTM 2604   1.776   6.121   0.235
   51POPC    CA 2605   1.889   6.015   0.203
   51POPC    CB 2606   2.029   6.086   0.204
   51POPC    OA 2607   2.051   6.143   0.334
   51POPC     P 2608   2.192   6.198   0.371
   51POPC    OB 2609   2.166   6.340   0.369
   51POPC    OC 2610   2.295   6.142   0.284
   51POPC    OD 2611   2.209   6.150   0.520
   51POPC    CC 2612   2.151   6.036   0.578
   51POPC    CD 2613   2.016   6.059   0.642
   51POPC    OE 2614   2.035   6.134   0.760
   51POPC   C1A 2615   1.926   6.193   0.808
   51POPC    OF 2616   1.813   6.195   0.757
   51POPC   C1B 2617   1.972   6.273   0.928
   51POPC   C1C 2618   1.860   6.340   1.015
   51POPC   C1D 2619   1.798   6.233   1.106
   51POPC   C1E 2620   1.717   6.288   1.221
   51POPC   C1F 2621   1.631   6.182   1.294
   51POPC   C1G 2622   1.581   6.251   1.425
   51POPC   C1H 2623   1.526   6.142   1.521
   51POPC   C1I 2624   1.459   6.228   1.630
   51POPC   C1J 2625   1.487   6.225   1.758
   51POPC   C1K 2626   1.592   6.153   1.830
   51POPC   C1L 2627   1.581   6.136   1.986
   51POPC   C1M 2628   1.466   6.037   2.011
   51POPC   C1N 2629   1.451   5.985   2.155
   51POPC   C1O 2630   1.470   6.087   2.272
   51POPC   C1P 2631   1.438   6.037   2.406
   51POPC   C1Q 2632   1.546   5.945   2.467
   51POPC   C1R 2633   1.494   5.877   2.600
   51POPC    CE 2634   1.938   5.933   0.661
   51POPC    OG 2635   2.006   5.841   0.750
   51POPC   C2A 2636   1.958   5.826   0.871
   51POPC    OH 2637   1.852   5.872   0.914
   51POPC   C2B 2638   2.050   5.740   0.952
   51POPC   C2C 2639   2.041   5.783   1.102
   51POPC   C2D 2640   2.145   5.719   1.189
   51POPC   C2E 2641   2.138   5.755   1.345
   51POPC   C2F 2642   2.240   5.686   1.439
   51POPC   C2G 2643   2.222   5.727   1.589
   51POPC   C2H 2644   2.336   5.673   1.676
   51POPC   C2I 2645   2.313   5.717   1.824
   51POPC   C2J 2646   2.435   5.687   1.913
   51POPC   C2K 2647   2.407   5.756   2.045
   51POPC   C2L 2648   2.515   5.723   2.149
   51POPC   C2M 2649   2.525   5.828   2.260
   51POPC   C2N 2650   2.605   5.771   2.375
   51POPC   C2O 2651   2.625   5.872   2.488
   51POPC   C2P 2652   2.713   5.817   2.599
   52POPC   CN1 2653   1.204   5.714   0.339
   52POPC   CN2 2654   1.372   5.861   0.432
   52POPC   CN3 2655   1.341   5.829   0.183
   52POPC   NTM 2656   1.343   5.761   0.320
   52POPC    CA 2657   1.443   5.639   0.313
   52POPC    CB 2658   1.588   5.691   0.285
   52POPC    OA 2659   1.627   5.780   0.391
   52POPC     P 2660   1.775   5.827   0.401
   52POPC    OB 2661   1.761   5.965   0.359
   52POPC    OC 2662   1.863   5.738   0.328
   52POPC    OD 2663   1.801   5.822   0.556
   52POPC    CC 2664   1.739   5.736   0.649
   52POPC    CD 2665   1.612   5.791   0.712
   52POPC    OE 2666   1.650   5.894   0.800
   52POPC   C1A 2667   1.551   5.976   0.836
   52POPC    OF 2668   1.434   5.976   0.794
   52POPC   C1B 2669   1.614   6.081   0.924
   52POPC   C1C 2670   1.518   6.182   0.995
   52POPC   C1D 2671   1.455   6.113   1.117
   52POPC   C1E 2672   1.390   6.207   1.216
   52POPC   C1F 2673   1.303   6.136   1.322
   52POPC   C1G 2674   1.271   6.244   1.430
   52POPC   C1H 2675   1.216   6.174   1.557
   52POPC   C1I 2676   1.167   6.293   1.640
   52POPC   C1J 2677   1.207   6.324   1.761
   52POPC   C1K 2678   1.311   6.264   1.844
   52POPC   C1L 2679   1.313   6.294   1.999
   52POPC   C1M 2680   1.193   6.219   2.059
   52POPC   C1N 2681   1.187   6.212   2.213
   52POPC   C1O 2682   1.225   6.340   2.294
   52POPC   C1P 2683   1.201   6.334   2.438
   52POPC   C1Q 2684   1.306   6.252   2.516
   52POPC   C1R 2685   1.261   6.230   2.666
   52POPC    CE 2686   1.527   5.685   0.771
   52POPC    OG 2687   1.594   5.615   0.878
   52POPC   C2A 2688   1.556   5.641   1.001
   52POPC    OH 2689   1.460   5.708   1.035
   52POPC   C2B 2690   1.648   5.572   1.098
   52POPC   C2C 2691   1.657   5.656   1.229
   52POPC   C2D 2692   1.762   5.608   1.324
   52POPC   C2E 2693   1.773   5.687   1.463
   52POPC   C2F 2694   1.877   5.636   1.566
   52POPC   C2G 2695   1.876   5.720   1.699
   52POPC   C2H 2696   1.992   5.681   1.791
   52POPC   C2I 2697   1.987   5.768   1.921
   52POPC   C2J 2698   2.114   5.751   2.005
   52POPC   C2K 2699   2.105   5.858   2.113
   52POPC   C2L 2700   2.219   5.843   2.216
   52POPC   C2M 2701   2.248   5.974   2.290
   52POPC   C2N 2702   2.333   5.943   2.411
   52POPC   C2O 2703   2.373   6.069   2.488
   52POPC   C2P 2704   2.465   6.039   2.605
   53POPC   CN1 2705   5.932   1.640   0.337
   53POPC   CN2 2706   5.734   1.737   0.436
   53POPC   CN3 2707   5.764   1.714   0.186
   53POPC   NTM 2708   5.832   1.747   0.319
   53POPC    CA 2709   5.904   1.887   0.305
   53POPC    CB 2710   5.797   1.999   0.278
   53POPC    OA 2711   5.705   2.002   0.388
   53POPC     P 2712   5.604   2.120   0.400
   53POPC    OB 2713   5.481   2.051   0.366
   53POPC    OC 2714   5.647   2.235   0.322
   53POPC    OD 2715   5.605   2.150   0.555
   53POPC    CC 2716   5.713   2.130   0.643
   53POPC    CD 2717   5.715   1.994   0.710
   53POPC    OE 2718   5.610   1.990   0.803
   53POPC   C1A 2719   5.576   1.868   0.844
   53POPC    OF 2720   5.620   1.760   0.803
   53POPC   C1B 2721   5.458   1.887   0.937
   53POPC   C1C 2722   5.407   1.760   1.014
   53POPC   C1D 2723   5.501   1.733   1.132
   53POPC   C1E 2724   5.445   1.639   1.237
   53POPC   C1F 2725   5.550   1.591   1.340
   53POPC   C1G 2726   5.469   1.521   1.454
   53POPC   C1H 2727   5.560   1.503   1.577
   53POPC   C1I 2728   5.473   1.413   1.667
   53POPC   C1J 2729   5.435   1.440   1.789
   53POPC   C1K 2730   5.453   1.562   1.868
   53POPC   C1L 2731   5.431   1.557   2.024
   53POPC   C1M 2732   5.551   1.478   2.081
   53POPC   C1N 2733   5.567   1.480   2.235
   53POPC   C1O 2734   5.437   1.466   2.322
   53POPC   C1P 2735   5.458   1.451   2.465
   53POPC   C1Q 2736   5.496   1.582   2.539
   53POPC   C1R 2737   5.541   1.553   2.687
   53POPC    CE 2738   5.849   1.959   0.764
   53POPC    OG 2739   5.891   2.051   0.867
   53POPC   C2A 2740   5.888   2.011   0.991
   53POPC    OH 2741   5.866   1.896   1.030
   53POPC   C2B 2742   5.919   2.124   1.084
   53POPC   C2C 2743   5.845   2.103   1.219
   53POPC   C2D 2744   5.851   2.221   1.311
   53POPC   C2E 2745   5.781   2.204   1.453
   53POPC   C2F 2746   5.790   2.322   1.552
   53POPC   C2G 2747   5.720   2.292   1.690
   53POPC   C2H 2748   5.714   2.417   1.778
   53POPC   C2I 2749   5.642   2.382   1.913
   53POPC   C2J 2750   5.611   2.507   1.995
   53POPC   C2K 2751   5.522   2.459   2.109
   53POPC   C2L 2752   5.495   2.572   2.209
   53POPC   C2M 2753   5.366   2.550   2.290
   53POPC   C2N 2754   5.366   2.643   2.409
   53POPC   C2O 2755   5.238   2.632   2.492
   53POPC   C2P 2756   5.234   2.732   2.607
   54POPC   CN1 2757   4.807   0.738   0.301
   54POPC   CN2 2758   4.695   0.549   0.399
   54POPC   CN3 2759   4.695   0.593   0.150
   54POPC   NTM 2760   4.686   0.655   0.290
   54POPC    CA 2761   4.557   0.746   0.295
   54POPC    CB 2762   4.429   0.656   0.276
   54POPC    OA 2763   4.425   0.558   0.380
   54POPC     P 2764   4.297   0.472   0.399
   54POPC    OB 2765   4.344   0.344   0.351
   54POPC    OC 2766   4.181   0.535   0.337
   54POPC    OD 2767   4.283   0.466   0.556
   54POPC    CC 2768   4.327   0.564   0.647
   54POPC    CD 2769   4.468   0.544   0.698
   54POPC    OE 2770   4.468   0.433   0.785
   54POPC   C1A 2771   4.588   0.380   0.810
   54POPC    OF 2772   4.696   0.413   0.759
   54POPC   C1B 2773   4.563   0.260   0.897
   54POPC   C1C 2774   4.688   0.188   0.956
   54POPC   C1D 2775   4.740   0.269   1.076
   54POPC   C1E 2776   4.836   0.194   1.166
   54POPC   C1F 2777   4.909   0.283   1.268
   54POPC   C1G 2778   4.978   0.186   1.369
   54POPC   C1H 2779   5.022   0.266   1.494
   54POPC   C1I 2780   5.108   0.162   1.568
   54POPC   C1J 2781   5.089   0.119   1.690
   54POPC   C1K 2782   4.979   0.146   1.784
   54POPC   C1L 2783   4.998   0.114   1.937
   54POPC   C1M 2784   5.098   0.217   1.991
   54POPC   C1N 2785   5.115   0.222   2.144
   54POPC   C1O 2786   5.120   0.086   2.222
   54POPC   C1P 2787   5.153   0.095   2.364
   54POPC   C1Q 2788   5.036   0.144   2.453
   54POPC   C1R 2789   5.086   0.174   2.600
   54POPC    CE 2790   4.526   0.668   0.756
   54POPC    OG 2791   4.452   0.714   0.871
   54POPC   C2A 2792   4.505   0.697   0.989
   54POPC    OH 2793   4.619   0.658   1.013
   54POPC   C2B 2794   4.407   0.736   1.095
   54POPC   C2C 2795   4.432   0.650   1.223
   54POPC   C2D 2796   4.326   0.665   1.328
   54POPC   C2E 2797   4.348   0.583   1.463
   54POPC   C2F 2798   4.243   0.601   1.576
   54POPC   C2G 2799   4.278   0.517   1.704
   54POPC   C2H 2800   4.163   0.522   1.806
   54POPC   C2I 2801   4.202   0.437   1.931
   54POPC   C2J 2802   4.083   0.416   2.026
   54POPC   C2K 2803   4.130   0.314   2.128
   54POPC   C2L 2804   4.026   0.294   2.239
   54POPC   C2M 2805   4.039   0.159   2.310
   54POPC   C2N 2806   3.959   0.162   2.438
   54POPC   C2O 2807   3.962   0.028   2.512
   54POPC   C2P 2808   3.875   0.030   2.637
   55POPC   CN1 2809   2.072   0.987   0.246
   55POPC   CN2 2810   1.893   1.033   0.402
   55POPC   CN3 2811   1.852   0.991   0.156
   55POPC   NTM 2812   1.942   1.058   0.260
   55POPC    CA 2813   1.958   1.210   0.220
   55POPC    CB 2814   1.819   1.281   0.227
   55POPC    OA 2815   1.768   1.270   0.361
   55POPC     P 2816   1.643   1.353   0.403
   55POPC    OB 2817   1.544   1.247   0.411
   55POPC    OC 2818   1.621   1.465   0.312
   55POPC    OD 2819   1.681   1.401   0.548
   55POPC    CC 2820   1.810   1.424   0.597
   55POPC    CD 2821   1.876   1.304   0.662
   55POPC    OE 2822   1.811   1.280   0.785
   55POPC   C1A 2823   1.831   1.159   0.837
   55POPC    OF 2824   1.893   1.065   0.785
   55POPC   C1B 2825   1.747   1.153   0.962
   55POPC   C1C 2826   1.765   1.028   1.054
   55POPC   C1D 2827   1.893   1.044   1.136
   55POPC   C1E 2828   1.904   0.951   1.255
   55POPC   C1F 2829   2.044   0.948   1.319
   55POPC   C1G 2830   2.028   0.872   1.455
   55POPC   C1H 2831   2.153   0.896   1.542
   55POPC   C1I 2832   2.131   0.796   1.657
   55POPC   C1J 2833   2.124   0.825   1.784
   55POPC   C1K 2834   2.125   0.955   1.851
   55POPC   C1L 2835   2.154   0.962   2.006
   55POPC   C1M 2836   2.304   0.929   2.023
   55POPC   C1N 2837   2.363   0.954   2.163
   55POPC   C1O 2838   2.277   0.914   2.287
   55POPC   C1P 2839   2.345   0.922   2.417
   55POPC   C1Q 2840   2.359   1.067   2.471
   55POPC   C1R 2841   2.453   1.070   2.598
   55POPC    CE 2842   2.024   1.317   0.671
   55POPC    OG 2843   2.063   1.429   0.753
   55POPC   C2A 2844   2.111   1.404   0.872
   55POPC    OH 2845   2.139   1.293   0.918
   55POPC   C2B 2846   2.130   1.532   0.948
   55POPC   C2C 2847   2.110   1.506   1.100
   55POPC   C2D 2848   2.106   1.631   1.183
   55POPC   C2E 2849   2.091   1.611   1.341
   55POPC   C2F 2850   2.092   1.738   1.429
   55POPC   C2G 2851   2.079   1.704   1.583
   55POPC   C2H 2852   2.060   1.832   1.666
   55POPC   C2I 2853   2.048   1.793   1.817
   55POPC   C2J 2854   2.005   1.913   1.903
   55POPC   C2K 2855   1.974   1.855   2.040
   55POPC   C2L 2856   1.943   1.966   2.142
   55POPC   C2M 2857   1.860   1.916   2.260
   55POPC   C2N 2858   1.865   2.019   2.371
   55POPC   C2O 2859   1.779   1.980   2.491
   55POPC   C2P 2860   1.778   2.088   2.599
   56POPC   CN1 2861   2.766   0.783   0.319
   56POPC   CN2 2862   2.558   0.771   0.440
   56POPC   CN3 2863   2.572   0.736   0.190
   56POPC   NTM 2864   2.622   0.817   0.310
   56POPC    CA 2865   2.604   0.970   0.276
   56POPC    CB 2866   2.452   1.003   0.260
   56POPC    OA 2867   2.384   0.971   0.382
   56POPC     P 2868   2.236   1.016   0.402
   56POPC    OB 2869   2.168   0.888   0.391
   56POPC    OC 2870   2.202   1.125   0.311
   56POPC    OD 2871   2.235   1.062   0.552
   56POPC    CC 2872   2.344   1.115   0.624
   56POPC    CD 2873   2.427   1.012   0.698
   56POPC    OE 2874   2.351   0.964   0.807
   56POPC   C1A 2875   2.393   0.849   0.859
   56POPC    OF 2876   2.485   0.777   0.818
   56POPC   C1B 2877   2.293   0.814   0.967
   56POPC   C1C 2878   2.327   0.692   1.058
   56POPC   C1D 2879   2.432   0.735   1.163
   56POPC   C1E 2880   2.446   0.640   1.280
   56POPC   C1F 2881   2.569   0.669   1.368
   56POPC   C1G 2882   2.551   0.583   1.497
   56POPC   C1H 2883   2.648   0.632   1.606
   56POPC   C1I 2884   2.634   0.523   1.713
   56POPC   C1J 2885   2.599   0.541   1.838
   56POPC   C1K 2886   2.554   0.663   1.906
   56POPC   C1L 2887   2.554   0.667   2.064
   56POPC   C1M 2888   2.702   0.672   2.106
   56POPC   C1N 2889   2.728   0.703   2.256
   56POPC   C1O 2890   2.636   0.634   2.362
   56POPC   C1P 2891   2.676   0.651   2.501
   56POPC   C1Q 2892   2.642   0.790   2.560
   56POPC   C1R 2893   2.709   0.809   2.702
   56POPC    CE 2894   2.562   1.061   0.734
   56POPC    OG 2895   2.557   1.174   0.823
   56POPC   C2A 2896   2.588   1.155   0.949
   56POPC    OH 2897   2.636   1.052   0.997
   56POPC   C2B 2898   2.560   1.279   1.029
   56POPC   C2C 2899   2.522   1.238   1.174
   56POPC   C2D 2900   2.472   1.353   1.257
   56POPC   C2E 2901   2.436   1.319   1.409
   56POPC   C2F 2902   2.388   1.436   1.499
   56POPC   C2G 2903   2.359   1.391   1.647
   56POPC   C2H 2904   2.294   1.504   1.728
   56POPC   C2I 2905   2.266   1.454   1.873
   56POPC   C2J 2906   2.180   1.553   1.952
   56POPC   C2K 2907   2.142   1.480   2.080
   56POPC   C2L 2908   2.067   1.573   2.177
   56POPC   C2M 2909   1.981   1.496   2.278
   56POPC   C2N 2910   1.941   1.589   2.389
   56POPC   C2O 2911   1.848   1.522   2.491
   56POPC   C2P 2912   1.801   1.619   2.599
   57POPC   CN1 2913   2.020   0.613   0.261
   57POPC   CN2 2914   1.904   0.463   0.412
   57POPC   CN3 2915   1.931   0.415   0.165
   57POPC   NTM 2916   1.904   0.522   0.271
   57POPC    CA 2917   1.772   0.599   0.230
   57POPC    CB 2918   1.650   0.499   0.233
   57POPC    OA 2919   1.638   0.445   0.365
   57POPC     P 2920   1.511   0.362   0.403
   57POPC    OB 2921   1.568   0.229   0.409
   57POPC    OC 2922   1.401   0.390   0.311
   57POPC    OD 2923   1.480   0.412   0.549
   57POPC    CC 2924   1.510   0.539   0.601
   57POPC    CD 2925   1.645   0.550   0.669
   57POPC    OE 2926   1.639   0.478   0.790
   57POPC   C1A 2927   1.757   0.447   0.843
   57POPC    OF 2928   1.868   0.467   0.794
   57POPC   C1B 2929   1.726   0.364   0.966
   57POPC   C1C 2930   1.846   0.328   1.059
   57POPC   C1D 2931   1.881   0.451   1.145
   57POPC   C1E 2932   1.969   0.420   1.265
   57POPC   C1F 2933   2.027   0.546   1.333
   57POPC   C1G 2934   2.087   0.497   1.469
   57POPC   C1H 2935   2.113   0.619   1.560
   57POPC   C1I 2936   2.194   0.556   1.674
   57POPC   C1J 2937   2.162   0.559   1.801
   57POPC   C1K 2938   2.042   0.610   1.867
   57POPC   C1L 2939   2.045   0.636   2.023
   57POPC   C1M 2940   2.134   0.759   2.044
   57POPC   C1N 2941   2.133   0.821   2.186
   57POPC   C1O 2942   2.134   0.723   2.308
   57POPC   C1P 2943   2.150   0.784   2.439
   57POPC   C1Q 2944   2.022   0.854   2.493
   57POPC   C1R 2945   2.054   0.938   2.623
   57POPC    CE 2946   1.692   0.690   0.682
   57POPC    OG 2947   1.604   0.769   0.765
   57POPC   C2A 2948   1.643   0.800   0.885
   57POPC    OH 2949   1.755   0.781   0.933
   57POPC   C2B 2950   1.532   0.868   0.960
   57POPC   C2C 2951   1.545   0.835   1.112
   57POPC   C2D 2952   1.427   0.879   1.194
   57POPC   C2E 2953   1.437   0.853   1.352
   57POPC   C2F 2954   1.319   0.903   1.439
   57POPC   C2G 2955   1.342   0.874   1.592
   57POPC   C2H 2956   1.216   0.906   1.674
   57POPC   C2I 2957   1.244   0.875   1.825
   57POPC   C2J 2958   1.116   0.882   1.909
   57POPC   C2K 2959   1.154   0.826   2.045
   57POPC   C2L 2960   1.038   0.841   2.146
   57POPC   C2M 2961   1.048   0.741   2.262
   57POPC   C2N 2962   0.954   0.785   2.372
   57POPC   C2O 2963   0.953   0.687   2.490
   57POPC   C2P 2964   0.852   0.727   2.597
   58POPC   CN1 2965   2.589   2.947   0.305
   58POPC   CN2 2966   2.383   2.944   0.431
   58POPC   CN3 2967   2.390   2.909   0.181
   58POPC   NTM 2968   2.447   2.987   0.300
   58POPC    CA 2969   2.435   3.142   0.267
   58POPC    CB 2970   2.284   3.181   0.254
   58POPC    OA 2971   2.217   3.151   0.377
   58POPC     P 2972   2.072   3.203   0.400
   58POPC    OB 2973   1.998   3.079   0.389
   58POPC    OC 2974   2.041   3.314   0.310
   58POPC    OD 2975   2.076   3.249   0.551
   58POPC    CC 2976   2.188   3.296   0.621
   58POPC    CD 2977   2.268   3.188   0.692
   58POPC    OE 2978   2.192   3.144   0.802
   58POPC   C1A 2979   2.230   3.027   0.853
   58POPC    OF 2980   2.318   2.951   0.810
   58POPC   C1B 2981   2.131   2.996   0.964
   58POPC   C1C 2982   2.161   2.871   1.053
   58POPC   C1D 2983   2.269   2.909   1.156
   58POPC   C1E 2984   2.282   2.813   1.272
   58POPC   C1F 2985   2.408   2.836   1.358
   58POPC   C1G 2986   2.388   2.750   1.487
   58POPC   C1H 2987   2.490   2.795   1.594
   58POPC   C1I 2988   2.473   2.685   1.701
   58POPC   C1J 2989   2.441   2.705   1.826
   58POPC   C1K 2990   2.403   2.828   1.896
   58POPC   C1L 2991   2.406   2.832   2.054
   58POPC   C1M 2992   2.555   2.830   2.093
   58POPC   C1N 2993   2.585   2.858   2.242
   58POPC   C1O 2994   2.492   2.793   2.350
   58POPC   C1P 2995   2.535   2.807   2.488
   58POPC   C1Q 2996   2.509   2.948   2.549
   58POPC   C1R 2997   2.579   2.963   2.689
   58POPC    CE 2998   2.406   3.232   0.726
   58POPC    OG 2999   2.407   3.344   0.816
   58POPC   C2A 3000   2.440   3.323   0.941
   58POPC    OH 3001   2.485   3.218   0.987
   58POPC   C2B 3002   2.420   3.448   1.021
   58POPC   C2C 3003   2.383   3.408   1.168
   58POPC   C2D 3004   2.339   3.524   1.252
   58POPC   C2E 3005   2.305   3.491   1.405
   58POPC   C2F 3006   2.264   3.610   1.496
   58POPC   C2G 3007   2.236   3.566   1.644
   58POPC   C2H 3008   2.177   3.681   1.727
   58POPC   C2I 3009   2.150   3.631   1.872
   58POPC   C2J 3010   2.070   3.733   1.954
   58POPC   C2K 3011   2.032   3.662   2.082
   58POPC   C2L 3012   1.962   3.757   2.181
   58POPC   C2M 3013   1.875   3.684   2.283
   58POPC   C2N 3014   1.841   3.778   2.396
   58POPC   C2O 3015   1.747   3.715   2.499
   58POPC   C2P 3016   1.707   3.813   2.608
   59POPC   CN1 3017   1.971   1.885   0.250
   59POPC   CN2 3018   1.902   2.077   0.379
   59POPC   CN3 3019   1.907   2.077   0.126
   59POPC   NTM 3020   1.977   2.033   0.255
   59POPC    CA 3021   2.128   2.081   0.247
   59POPC    CB 3022   2.133   2.237   0.244
   59POPC    OA 3023   2.071   2.289   0.362
   59POPC     P 3024   2.083   2.440   0.397
   59POPC    OB 3025   1.948   2.484   0.369
   59POPC    OC 3026   2.195   2.501   0.327
   59POPC    OD 3027   2.106   2.437   0.553
   59POPC    CC 3028   2.167   2.335   0.627
   59POPC    CD 3029   2.071   2.228   0.678
   59POPC    OE 3030   1.994   2.286   0.782
   59POPC   C1A 3031   1.883   2.219   0.813
   59POPC    OF 3032   1.838   2.119   0.756
   59POPC   C1B 3033   1.814   2.302   0.919
   59POPC   C1C 3034   1.689   2.239   0.987
   59POPC   C1D 3035   1.735   2.136   1.092
   59POPC   C1E 3036   1.628   2.095   1.191
   59POPC   C1F 3037   1.667   1.973   1.277
   59POPC   C1G 3038   1.560   1.965   1.391
   59POPC   C1H 3039   1.611   1.870   1.501
   59POPC   C1I 3040   1.486   1.855   1.589
   59POPC   C1J 3041   1.479   1.883   1.717
   59POPC   C1K 3042   1.578   1.944   1.807
   59POPC   C1L 3043   1.559   1.932   1.963
   59POPC   C1M 3044   1.586   1.785   1.998
   59POPC   C1N 3045   1.598   1.752   2.148
   59POPC   C1O 3046   1.498   1.821   2.247
   59POPC   C1P 3047   1.502   1.774   2.385
   59POPC   C1Q 3048   1.622   1.828   2.467
   59POPC   C1R 3049   1.632   1.754   2.606
   59POPC    CE 3050   2.140   2.102   0.715
   59POPC    OG 3051   2.235   2.121   0.821
   59POPC   C2A 3052   2.204   2.076   0.940
   59POPC    OH 3053   2.107   2.007   0.969
   59POPC   C2B 3054   2.307   2.119   1.040
   59POPC   C2C 3055   2.239   2.138   1.179
   59POPC   C2D 3056   2.328   2.201   1.282
   59POPC   C2E 3057   2.266   2.218   1.429
   59POPC   C2F 3058   2.357   2.279   1.538
   59POPC   C2G 3059   2.286   2.287   1.678
   59POPC   C2H 3060   2.371   2.365   1.779
   59POPC   C2I 3061   2.295   2.371   1.916
   59POPC   C2J 3062   2.363   2.468   2.014
   59POPC   C2K 3063   2.266   2.481   2.131
   59POPC   C2L 3064   2.328   2.564   2.245
   59POPC   C2M 3065   2.222   2.626   2.336
   59POPC   C2N 3066   2.288   2.674   2.463
   59POPC   C2O 3067   2.190   2.744   2.558
   59POPC   C2P 3068   2.259   2.799   2.682
   60POPC   CN1 3069   1.934   5.001   0.248
   60POPC   CN2 3070   1.933   5.206   0.376
   60POPC   CN3 3071   1.941   5.203   0.123
   60POPC   NTM 3072   1.990   5.138   0.252
   60POPC    CA 3073   2.148   5.131   0.246
   60POPC    CB 3074   2.206   5.277   0.243
   60POPC    OA 3075   2.164   5.347   0.361
   60POPC     P 3076   2.227   5.485   0.395
   60POPC    OB 3077   2.115   5.573   0.365
   60POPC    OC 3078   2.354   5.504   0.326
   60POPC    OD 3079   2.245   5.476   0.551
   60POPC    CC 3080   2.267   5.359   0.626
   60POPC    CD 3081   2.141   5.292   0.677
   60POPC    OE 3082   2.087   5.372   0.779
   60POPC   C1A 3083   1.959   5.348   0.809
   60POPC    OF 3084   1.883   5.269   0.751
   60POPC   C1B 3085   1.921   5.450   0.914
   60POPC   C1C 3086   1.781   5.433   0.980
   60POPC   C1D 3087   1.789   5.322   1.086
   60POPC   C1E 3088   1.673   5.320   1.184
   60POPC   C1F 3089   1.667   5.192   1.270
   60POPC   C1G 3090   1.563   5.222   1.383
   60POPC   C1H 3091   1.577   5.115   1.495
   60POPC   C1I 3092   1.454   5.144   1.581
   60POPC   C1J 3093   1.455   5.174   1.709
   60POPC   C1K 3094   1.568   5.197   1.799
   60POPC   C1L 3095   1.544   5.193   1.955
   60POPC   C1M 3096   1.519   5.046   1.991
   60POPC   C1N 3097   1.518   5.012   2.141
   60POPC   C1O 3098   1.446   5.111   2.239
   60POPC   C1P 3099   1.432   5.067   2.376
   60POPC   C1Q 3100   1.562   5.077   2.460
   60POPC   C1R 3101   1.546   5.005   2.600
   60POPC    CE 3102   2.162   5.149   0.714
   60POPC    OG 3103   2.257   5.135   0.821
   60POPC   C2A 3104   2.211   5.105   0.940
   60POPC    OH 3105   2.095   5.073   0.968
   60POPC   C2B 3106   2.321   5.111   1.041
   60POPC   C2C 3107   2.262   5.152   1.180
   60POPC   C2D 3108   2.366   5.182   1.283
   60POPC   C2E 3109   2.312   5.219   1.429
   60POPC   C2F 3110   2.417   5.246   1.539
   60POPC   C2G 3111   2.352   5.279   1.679
   60POPC   C2H 3112   2.457   5.323   1.781
   60POPC   C2I 3113   2.387   5.356   1.917
   60POPC   C2J 3114   2.482   5.424   2.016
   60POPC   C2K 3115   2.394   5.470   2.131
   60POPC   C2L 3116   2.479   5.527   2.246
   60POPC   C2M 3117   2.400   5.623   2.336
   60POPC   C2N 3118   2.477   5.645   2.464
   60POPC   C2O 3119   2.408   5.745   2.556
   60POPC   C2P 3120   2.490   5.774   2.681
   61POPC   CN1 3121   4.646   5.875   0.243
   61POPC   CN2 3122   4.751   6.057   0.362
   61POPC   CN3 3123   4.743   6.046   0.109
   61POPC   NTM 3124   4.761   5.967   0.239
   61POPC    CA 3125   4.896   5.885   0.228
   61POPC    CB 3126   5.017   5.984   0.216
   61POPC    OA 3127   5.020   6.068   0.333
   61POPC     P 3128   5.143   6.160   0.359
   61POPC    OB 3129   5.086   6.289   0.330
   61POPC    OC 3130   5.260   6.113   0.285
   61POPC    OD 3131   5.163   6.145   0.515
   61POPC    CC 3132   5.129   6.034   0.593
   61POPC    CD 3133   4.989   6.037   0.651
   61POPC    OE 3134   4.986   6.136   0.752
   61POPC   C1A 3135   4.865   6.176   0.788
   61POPC    OF 3136   4.757   6.143   0.736
   61POPC   C1B 3137   4.886   6.286   0.890
   61POPC   C1C 3138   4.759   6.340   0.962
   61POPC   C1D 3139   4.717   6.241   1.072
   61POPC   C1E 3140   4.621   6.297   1.174
   61POPC   C1F 3141   4.558   6.189   1.266
   61POPC   C1G 3142   4.487   6.268   1.381
   61POPC   C1H 3143   4.454   6.170   1.496
   61POPC   C1I 3144   4.365   6.257   1.586
   61POPC   C1J 3145   4.386   6.284   1.712
   61POPC   C1K 3146   4.501   6.252   1.797
   61POPC   C1L 3147   4.487   6.263   1.954
   61POPC   C1M 3148   4.396   6.147   1.996
   61POPC   C1N 3149   4.386   6.120   2.148
   61POPC   C1O 3150   4.376   6.244   2.244
   61POPC   C1P 3151   4.350   6.214   2.384
   61POPC   C1Q 3152   4.473   6.161   2.463
   61POPC   C1R 3153   4.431   6.109   2.605
   61POPC    CE 3154   4.941   5.903   0.693
   61POPC    OG 3155   5.023   5.847   0.798
   61POPC   C2A 3156   4.974   5.844   0.920
   61POPC    OH 3157   4.859   5.872   0.953
   61POPC   C2B 3158   5.079   5.798   1.016
   61POPC   C2C 3159   5.054   5.865   1.155
   61POPC   C2D 3160   5.166   5.843   1.254
   61POPC   C2E 3161   5.143   5.905   1.399
   61POPC   C2F 3162   5.254   5.879   1.505
   61POPC   C2G 3163   5.220   5.942   1.645
   61POPC   C2H 3164   5.339   5.932   1.741
   61POPC   C2I 3165   5.300   5.997   1.878
   61POPC   C2J 3166   5.421   6.013   1.970
   61POPC   C2K 3167   5.373   6.098   2.087
   61POPC   C2L 3168   5.481   6.109   2.196
   61POPC   C2M 3169   5.462   6.233   2.285
   61POPC   C2N 3170   5.547   6.218   2.409
   61POPC   C2O 3171   5.539   6.340   2.500
   61POPC   C2P 3172   5.632   6.328   2.620
   62POPC   CN1 3173   3.577   2.666   0.350
   62POPC   CN2 3174   3.628   2.447   0.438
   62POPC   CN3 3175   3.611   2.494   0.190
   62POPC   NTM 3176   3.553   2.522   0.329
   62POPC    CA 3177   3.397   2.493   0.324
   62POPC    CB 3178   3.373   2.341   0.293
   62POPC    OA 3179   3.434   2.263   0.396
   62POPC     P 3180   3.405   2.110   0.405
   62POPC    OB 3181   3.532   2.057   0.360
   62POPC    OC 3182   3.283   2.076   0.333
   62POPC    OD 3183   3.391   2.087   0.559
   62POPC    CC 3184   3.346   2.180   0.654
   62POPC    CD 3185   3.456   2.264   0.717
   62POPC    OE 3186   3.531   2.180   0.803
   62POPC   C1A 3187   3.650   2.228   0.838
   62POPC    OF 3188   3.705   2.330   0.796
   62POPC   C1B 3189   3.714   2.120   0.923
   62POPC   C1C 3190   3.850   2.155   0.991
   62POPC   C1D 3191   3.821   2.241   1.116
   62POPC   C1E 3192   3.937   2.251   1.213
   62POPC   C1F 3193   3.918   2.360   1.321
   62POPC   C1G 3194   4.030   2.334   1.427
   62POPC   C1H 3195   3.996   2.413   1.556
   62POPC   C1I 3196   4.126   2.397   1.637
   62POPC   C1J 3197   4.137   2.346   1.757
   62POPC   C1K 3198   4.035   2.281   1.841
   62POPC   C1L 3199   4.063   2.262   1.995
   62POPC   C1M 3200   4.056   2.403   2.057
   62POPC   C1N 3201   4.055   2.408   2.211
   62POPC   C1O 3202   4.151   2.312   2.289
   62POPC   C1P 3203   4.160   2.333   2.433
   62POPC   C1Q 3204   4.039   2.279   2.513
   62POPC   C1R 3205   4.044   2.326   2.663
   62POPC    CE 3206   3.405   2.389   0.780
   62POPC    OG 3207   3.314   2.361   0.888
   62POPC   C2A 3208   3.356   2.379   1.010
   62POPC    OH 3209   3.462   2.431   1.044
   62POPC   C2B 3210   3.253   2.330   1.108
   62POPC   C2C 3211   3.326   2.280   1.237
   62POPC   C2D 3212   3.234   2.208   1.333
   62POPC   C2E 3213   3.301   2.159   1.469
   62POPC   C2F 3214   3.209   2.089   1.573
   62POPC   C2G 3215   3.285   2.048   1.704
   62POPC   C2H 3216   3.197   1.962   1.795
   62POPC   C2I 3217   3.277   1.923   1.923
   62POPC   C2J 3218   3.204   1.818   2.007
   62POPC   C2K 3219   3.304   1.773   2.113
   62POPC   C2L 3220   3.238   1.679   2.214
   62POPC   C2M 3221   3.340   1.589   2.286
   62POPC   C2N 3222   3.275   1.527   2.407
   62POPC   C2O 3223   3.368   1.430   2.480
   62POPC   C2P 3224   3.299   1.361   2.597
   63POPC   CN1 3225   1.799   3.296   0.333
   63POPC   CN2 3226   1.736   3.502   0.442
   63POPC   CN3 3227   1.722   3.470   0.191
   63POPC   NTM 3228   1.803   3.443   0.319
   63POPC    CA 3229   1.951   3.492   0.293
   63POPC    CB 3230   1.952   3.647   0.270
   63POPC    OA 3231   1.898   3.712   0.386
   63POPC     P 3232   1.910   3.866   0.400
   63POPC    OB 3233   1.772   3.905   0.377
   63POPC    OC 3234   2.015   3.919   0.314
   63POPC    OD 3235   1.944   3.884   0.553
   63POPC    CC 3236   2.013   3.792   0.634
   63POPC    CD 3237   1.925   3.692   0.706
   63POPC    OE 3238   1.854   3.761   0.807
   63POPC   C1A 3239   1.748   3.697   0.855
   63POPC    OF 3240   1.700   3.590   0.814
   63POPC   C1B 3241   1.685   3.792   0.955
   63POPC   C1C 3242   1.566   3.736   1.040
   63POPC   C1D 3243   1.623   3.648   1.153
   63POPC   C1E 3244   1.525   3.619   1.264
   63POPC   C1F 3245   1.573   3.508   1.361
   63POPC   C1G 3246   1.476   3.514   1.484
   63POPC   C1H 3247   1.537   3.434   1.601
   63POPC   C1I 3248   1.420   3.429   1.700
   63POPC   C1J 3249   1.421   3.473   1.823
   63POPC   C1K 3250   1.526   3.545   1.896
   63POPC   C1L 3251   1.519   3.553   2.054
   63POPC   C1M 3252   1.552   3.411   2.105
   63POPC   C1N 3253   1.577   3.398   2.257
   63POPC   C1O 3254   1.483   3.478   2.353
   63POPC   C1P 3255   1.498   3.449   2.495
   63POPC   C1Q 3256   1.622   3.514   2.560
   63POPC   C1R 3257   1.645   3.459   2.707
   63POPC    CE 3258   1.999   3.572   0.752
   63POPC    OG 3259   2.101   3.605   0.848
   63POPC   C2A 3260   2.080   3.576   0.973
   63POPC    OH 3261   1.987   3.509   1.018
   63POPC   C2B 3262   2.190   3.632   1.059
   63POPC   C2C 3263   2.132   3.667   1.199
   63POPC   C2D 3264   2.227   3.744   1.286
   63POPC   C2E 3265   2.176   3.779   1.434
   63POPC   C2F 3266   2.274   3.854   1.527
   63POPC   C2G 3267   2.214   3.879   1.670
   63POPC   C2H 3268   2.305   3.970   1.754
   63POPC   C2I 3269   2.240   3.993   1.894
   63POPC   C2J 3270   2.312   4.101   1.974
   63POPC   C2K 3271   2.224   4.128   2.095
   63POPC   C2L 3272   2.293   4.225   2.193
   63POPC   C2M 3273   2.193   4.298   2.284
   63POPC   C2N 3274   2.267   4.362   2.399
   63POPC   C2O 3275   2.175   4.442   2.491
   63POPC   C2P 3276   2.252   4.513   2.601
   64POPC   CN1 3277   4.933   5.151   0.257
   64POPC   CN2 3278   5.027   5.335   0.381
   64POPC   CN3 3279   5.033   5.324   0.128
   64POPC   NTM 3280   5.046   5.246   0.259
   64POPC    CA 3281   5.183   5.167   0.255
   64POPC    CB 3282   5.302   5.269   0.250
   64POPC    OA 3283   5.297   5.353   0.366
   64POPC     P 3284   5.417   5.447   0.399
   64POPC    OB 3285   5.358   5.575   0.366
   64POPC    OC 3286   5.538   5.403   0.331
   64POPC    OD 3287   5.428   5.433   0.555
   64POPC    CC 3288   5.393   5.321   0.632
   64POPC    CD 3289   5.250   5.321   0.683
   64POPC    OE 3290   5.240   5.420   0.783
   64POPC   C1A 3291   5.115   5.457   0.812
   64POPC    OF 3292   5.011   5.422   0.755
   64POPC   C1B 3293   5.128   5.567   0.915
   64POPC   C1C 3294   4.997   5.620   0.980
   64POPC   C1D 3295   4.951   5.519   1.088
   64POPC   C1E 3296   4.848   5.573   1.184
   64POPC   C1F 3297   4.783   5.464   1.273
   64POPC   C1G 3298   4.705   5.541   1.384
   64POPC   C1H 3299   4.668   5.443   1.497
   64POPC   C1I 3300   4.571   5.528   1.582
   64POPC   C1J 3301   4.586   5.556   1.709
   64POPC   C1K 3302   4.697   5.526   1.801
   64POPC   C1L 3303   4.674   5.537   1.956
   64POPC   C1M 3304   4.583   5.419   1.994
   64POPC   C1N 3305   4.566   5.392   2.145
   64POPC   C1O 3306   4.548   5.516   2.240
   64POPC   C1P 3307   4.515   5.485   2.378
   64POPC   C1Q 3308   4.635   5.436   2.464
   64POPC   C1R 3309   4.586   5.382   2.604
   64POPC    CE 3310   5.203   5.186   0.723
   64POPC    OG 3311   5.280   5.132   0.832
   64POPC   C2A 3312   5.225   5.128   0.950
   64POPC    OH 3313   5.108   5.154   0.977
   64POPC   C2B 3314   5.326   5.084   1.053
   64POPC   C2C 3315   5.292   5.151   1.190
   64POPC   C2D 3316   5.398   5.131   1.294
   64POPC   C2E 3317   5.367   5.193   1.438
   64POPC   C2F 3318   5.472   5.170   1.550
   64POPC   C2G 3319   5.429   5.233   1.687
   64POPC   C2H 3320   5.543   5.225   1.790
   64POPC   C2I 3321   5.496   5.289   1.924
   64POPC   C2J 3322   5.611   5.308   2.023
   64POPC   C2K 3323   5.555   5.391   2.137
   64POPC   C2L 3324   5.656   5.405   2.251
   64POPC   C2M 3325   5.630   5.529   2.339
   64POPC   C2N 3326   5.709   5.516   2.467
   64POPC   C2O 3327   5.694   5.638   2.557
   64POPC   C2P 3328   5.780   5.628   2.683
    1POPC   CN1 3329   5.011   4.463   5.745
    1POPC   CN2 3330   5.169   4.321   5.630
    1POPC   CN3 3331   5.155   4.334   5.883
    1POPC   NTM 3332   5.149   4.412   5.751
    1POPC    CA 3333   5.251   4.532   5.761
    1POPC    CB 3334   5.397   4.476   5.776
    1POPC    OA 3335   5.427   4.395   5.662
    1POPC     P 3336   5.574   4.347   5.638
    1POPC    OB 3337   5.560   4.206   5.670
    1POPC    OC 3338   5.668   4.429   5.712
    1POPC    OD 3339   5.590   4.364   5.482
    1POPC    CC 3340   5.524   4.457   5.401
    1POPC    CD 3341   5.393   4.409   5.342
    1POPC    OE 3342   5.422   4.312   5.244
    1POPC   C1A 3343   5.320   4.235   5.208
    1POPC    OF 3344   5.207   4.233   5.258
    1POPC   C1B 3345   5.376   4.136   5.109
    1POPC   C1C 3346   5.273   4.042   5.037
    1POPC   C1D 3347   5.204   4.121   4.925
    1POPC   C1E 3348   5.131   4.036   4.823
    1POPC   C1F 3349   5.039   4.116   4.729
    1POPC   C1G 3350   4.998   4.017   4.615
    1POPC   C1H 3351   4.937   4.097   4.498
    1POPC   C1I 3352   4.881   3.985   4.409
    1POPC   C1J 3353   4.912   3.963   4.284
    1POPC   C1K 3354   5.011   4.028   4.199
    1POPC   C1L 3355   5.003   4.010   4.042
    1POPC   C1M 3356   4.880   4.091   3.997
    1POPC   C1N 3357   4.865   4.110   3.844
    1POPC   C1O 3358   4.896   3.988   3.751
    1POPC   C1P 3359   4.863   4.005   3.610
    1POPC   C1Q 3360   4.964   4.092   3.531
    1POPC   C1R 3361   4.910   4.125   3.387
    1POPC    CE 3362   5.305   4.520   5.297
    1POPC    OG 3363   5.366   4.597   5.191
    1POPC   C2A 3364   5.321   4.582   5.069
    1POPC    OH 3365   5.221   4.518   5.036
    1POPC   C2B 3366   5.407   4.656   4.972
    1POPC   C2C 3367   5.406   4.582   4.835
    1POPC   C2D 3368   5.506   4.636   4.736
    1POPC   C2E 3369   5.507   4.568   4.592
    1POPC   C2F 3370   5.605   4.625   4.487
    1POPC   C2G 3371   5.594   4.551   4.348
    1POPC   C2H 3372   5.705   4.596   4.252
    1POPC   C2I 3373   5.690   4.520   4.117
    1POPC   C2J 3374   5.812   4.542   4.025
    1POPC   C2K 3375   5.794   4.444   3.910
    1POPC   C2L 3376   5.901   4.464   3.802
    1POPC   C2M 3377   5.923   4.340   3.716
    1POPC   C2N 3378   6.001   4.378   3.592
    1POPC   C2O 3379   6.033   4.258   3.504
    1POPC   C2P 3380   6.119   4.296   3.384
    2POPC   CN1 3381   1.137   4.847   5.676
    2POPC   CN2 3382   1.098   4.628   5.582
    2POPC   CN3 3383   1.118   4.668   5.831
    2POPC   NTM 3384   1.171   4.704   5.692
    2POPC    CA 3385   1.328   4.685   5.692
    2POPC    CB 3386   1.363   4.534   5.717
    2POPC    OA 3387   1.304   4.455   5.613
    2POPC     P 3388   1.343   4.305   5.598
    2POPC    OB 3389   1.220   4.242   5.644
    2POPC    OC 3390   1.469   4.277   5.666
    2POPC    OD 3391   1.354   4.288   5.442
    2POPC    CC 3392   1.390   4.387   5.350
    2POPC    CD 3393   1.274   4.465   5.292
    2POPC    OE 3394   1.203   4.380   5.205
    2POPC   C1A 3395   1.079   4.421   5.175
    2POPC    OF 3396   1.019   4.518   5.222
    2POPC   C1B 3397   1.021   4.312   5.088
    2POPC   C1C 3398   0.881   4.340   5.024
    2POPC   C1D 3399   0.901   4.432   4.902
    2POPC   C1E 3400   0.783   4.438   4.808
    2POPC   C1F 3401   0.792   4.551   4.703
    2POPC   C1G 3402   0.679   4.522   4.598
    2POPC   C1H 3403   0.704   4.607   4.472
    2POPC   C1I 3404   0.573   4.585   4.394
    2POPC   C1J 3405   0.563   4.537   4.272
    2POPC   C1K 3406   0.667   4.482   4.184
    2POPC   C1L 3407   0.636   4.467   4.030
    2POPC   C1M 3408   0.633   4.609   3.973
    2POPC   C1N 3409   0.629   4.620   3.818
    2POPC   C1O 3410   0.538   4.520   3.740
    2POPC   C1P 3411   0.524   4.545   3.597
    2POPC   C1Q 3412   0.647   4.502   3.513
    2POPC   C1R 3413   0.635   4.554   3.364
    2POPC    CE 3414   1.315   4.595   5.233
    2POPC    OG 3415   1.405   4.578   5.122
    2POPC   C2A 3416   1.359   4.597   5.001
    2POPC    OH 3417   1.248   4.643   4.972
    2POPC   C2B 3418   1.462   4.558   4.899
    2POPC   C2C 3419   1.390   4.507   4.771
    2POPC   C2D 3420   1.483   4.445   4.670
    2POPC   C2E 3421   1.416   4.396   4.534
    2POPC   C2F 3422   1.510   4.336   4.426
    2POPC   C2G 3423   1.433   4.294   4.295
    2POPC   C2H 3424   1.525   4.218   4.199
    2POPC   C2I 3425   1.444   4.177   4.072
    2POPC   C2J 3426   1.522   4.081   3.982
    2POPC   C2K 3427   1.423   4.033   3.878
    2POPC   C2L 3428   1.491   3.946   3.771
    2POPC   C2M 3429   1.394   3.852   3.699
    2POPC   C2N 3430   1.460   3.798   3.574
    2POPC   C2O 3431   1.371   3.698   3.500
    2POPC   C2P 3432   1.441   3.638   3.379
    3POPC   CN1 3433   3.669   5.674   5.744
    3POPC   CN2 3434   3.537   5.834   5.620
    3POPC   CN3 3435   3.533   5.820   5.872
    3POPC   NTM 3436   3.537   5.742   5.741
    3POPC    CA 3437   3.421   5.635   5.743
    3POPC    CB 3438   3.282   5.708   5.749
    3POPC    OA 3439   3.270   5.792   5.633
    3POPC     P 3440   3.133   5.857   5.600
    3POPC    OB 3441   3.161   5.995   5.633
    3POPC    OC 3442   3.023   5.787   5.667
    3POPC    OD 3443   3.125   5.842   5.443
    3POPC    CC 3444   3.184   5.741   5.366
    3POPC    CD 3445   3.324   5.773   5.316
    3POPC    OE 3446   3.313   5.872   5.217
    3POPC   C1A 3447   3.427   5.937   5.189
    3POPC    OF 3448   3.536   5.925   5.246
    3POPC   C1B 3449   3.390   6.042   5.086
    3POPC   C1C 3450   3.508   6.122   5.022
    3POPC   C1D 3451   3.575   6.035   4.915
    3POPC   C1E 3452   3.664   6.110   4.819
    3POPC   C1F 3453   3.752   6.019   4.730
    3POPC   C1G 3454   3.812   6.112   4.620
    3POPC   C1H 3455   3.871   6.025   4.507
    3POPC   C1I 3456   3.946   6.129   4.423
    3POPC   C1J 3457   3.927   6.154   4.296
    3POPC   C1K 3458   3.826   6.102   4.204
    3POPC   C1L 3459   3.847   6.118   4.048
    3POPC   C1M 3460   3.961   6.023   4.010
    3POPC   C1N 3461   3.984   6.002   3.859
    3POPC   C1O 3462   3.975   6.127   3.765
    3POPC   C1P 3463   4.015   6.105   3.627
    3POPC   C1Q 3464   3.910   6.031   3.541
    3POPC   C1R 3465   3.970   5.991   3.400
    3POPC    CE 3466   3.400   5.652   5.276
    3POPC    OG 3467   3.338   5.583   5.166
    3POPC   C2A 3468   3.392   5.592   5.048
    3POPC    OH 3469   3.501   5.643   5.022
    3POPC   C2B 3470   3.305   5.528   4.945
    3POPC   C2C 3471   3.324   5.601   4.808
    3POPC   C2D 3472   3.225   5.560   4.703
    3POPC   C2E 3473   3.243   5.627   4.560
    3POPC   C2F 3474   3.146   5.582   4.447
    3POPC   C2G 3475   3.175   5.654   4.310
    3POPC   C2H 3476   3.066   5.622   4.207
    3POPC   C2I 3477   3.099   5.696   4.073
    3POPC   C2J 3478   2.983   5.689   3.974
    3POPC   C2K 3479   3.020   5.784   3.861
    3POPC   C2L 3480   2.918   5.776   3.746
    3POPC   C2M 3481   2.918   5.903   3.659
    3POPC   C2N 3482   2.845   5.873   3.530
    3POPC   C2O 3483   2.833   5.997   3.440
    3POPC   C2P 3484   2.752   5.969   3.314
    4POPC   CN1 3485   1.569   0.513   5.760
    4POPC   CN2 3486   1.658   0.335   5.623
    4POPC   CN3 3487   1.661   0.328   5.876
    4POPC   NTM 3488   1.679   0.415   5.751
    4POPC    CA 3489   1.819   0.488   5.762
    4POPC    CB 3490   1.934   0.382   5.761
    4POPC    OA 3491   1.927   0.307   5.639
    4POPC     P 3492   2.044   0.212   5.600
    4POPC    OB 3493   1.981   0.083   5.623
    4POPC    OC 3494   2.166   0.246   5.672
    4POPC    OD 3495   2.057   0.236   5.445
    4POPC    CC 3496   2.027   0.354   5.376
    4POPC    CD 3497   1.884   0.363   5.325
    4POPC    OE 3498   1.871   0.272   5.218
    4POPC   C1A 3499   1.746   0.241   5.185
    4POPC    OF 3500   1.643   0.275   5.244
    4POPC   C1B 3501   1.756   0.138   5.075
    4POPC   C1C 3502   1.623   0.095   5.005
    4POPC   C1D 3503   1.583   0.205   4.905
    4POPC   C1E 3504   1.479   0.162   4.804
    4POPC   C1F 3505   1.418   0.278   4.723
    4POPC   C1G 3506   1.338   0.212   4.606
    4POPC   C1H 3507   1.305   0.320   4.500
    4POPC   C1I 3508   1.207   0.245   4.408
    4POPC   C1J 3509   1.222   0.225   4.280
    4POPC   C1K 3510   1.335   0.257   4.191
    4POPC   C1L 3511   1.313   0.259   4.035
    4POPC   C1M 3512   1.226   0.382   4.005
    4POPC   C1N 3513   1.212   0.420   3.856
    4POPC   C1O 3514   1.191   0.305   3.753
    4POPC   C1P 3515   1.160   0.346   3.617
    4POPC   C1Q 3516   1.282   0.397   3.536
    4POPC   C1R 3517   1.237   0.462   3.399
    4POPC    CE 3518   1.842   0.502   5.294
    4POPC    OG 3519   1.922   0.561   5.190
    4POPC   C2A 3520   1.868   0.575   5.072
    4POPC    OH 3521   1.750   0.555   5.042
    4POPC   C2B 3522   1.971   0.623   4.973
    4POPC   C2C 3523   1.936   0.567   4.832
    4POPC   C2D 3524   2.044   0.590   4.730
    4POPC   C2E 3525   2.012   0.541   4.581
    4POPC   C2F 3526   2.119   0.568   4.473
    4POPC   C2G 3527   2.076   0.517   4.330
    4POPC   C2H 3528   2.191   0.527   4.229
    4POPC   C2I 3529   2.142   0.475   4.091
    4POPC   C2J 3530   2.258   0.460   3.992
    4POPC   C2K 3531   2.200   0.386   3.872
    4POPC   C2L 3532   2.302   0.377   3.757
    4POPC   C2M 3533   2.273   0.262   3.661
    4POPC   C2N 3534   2.353   0.281   3.534
    4POPC   C2O 3535   2.334   0.166   3.435
    4POPC   C2P 3536   2.422   0.182   3.312
    5POPC   CN1 3537   1.543   5.105   5.772
    5POPC   CN2 3538   1.584   4.916   5.628
    5POPC   CN3 3539   1.574   4.896   5.880
    5POPC   NTM 3540   1.621   4.980   5.761
    5POPC    CA 3541   1.775   5.010   5.780
    5POPC    CB 3542   1.856   4.876   5.776
    5POPC    OA 3543   1.833   4.812   5.649
    5POPC     P 3544   1.920   4.690   5.608
    5POPC    OB 3545   1.823   4.583   5.622
    5POPC    OC 3546   2.044   4.685   5.686
    5POPC    OD 3547   1.947   4.717   5.456
    5POPC    CC 3548   1.954   4.842   5.393
    5POPC    CD 3549   1.822   4.893   5.338
    5POPC    OE 3550   1.789   4.815   5.226
    5POPC   C1A 3551   1.662   4.822   5.188
    5POPC    OF 3552   1.570   4.882   5.245
    5POPC   C1B 3553   1.648   4.726   5.071
    5POPC   C1C 3554   1.511   4.726   4.996
    5POPC   C1D 3555   1.508   4.847   4.901
    5POPC   C1E 3556   1.400   4.840   4.794
    5POPC   C1F 3557   1.379   4.973   4.719
    5POPC   C1G 3558   1.289   4.939   4.596
    5POPC   C1H 3559   1.293   5.056   4.495
    5POPC   C1I 3560   1.181   5.016   4.397
    5POPC   C1J 3561   1.196   5.000   4.268
    5POPC   C1K 3562   1.317   5.003   4.185
    5POPC   C1L 3563   1.303   5.018   4.029
    5POPC   C1M 3564   1.257   5.163   4.003
    5POPC   C1N 3565   1.260   5.210   3.857
    5POPC   C1O 3566   1.212   5.110   3.746
    5POPC   C1P 3567   1.200   5.165   3.612
    5POPC   C1Q 3568   1.335   5.184   3.538
    5POPC   C1R 3569   1.316   5.266   3.404
    5POPC    CE 3570   1.822   5.040   5.315
    5POPC    OG 3571   1.920   5.079   5.217
    5POPC   C2A 3572   1.878   5.113   5.098
    5POPC    OH 3573   1.761   5.129   5.064
    5POPC   C2B 3574   1.994   5.134   5.006
    5POPC   C2C 3575   1.952   5.098   4.860
    5POPC   C2D 3576   2.066   5.095   4.763
    5POPC   C2E 3577   2.029   5.063   4.611
    5POPC   C2F 3578   2.144   5.064   4.507
    5POPC   C2G 3579   2.094   5.035   4.361
    5POPC   C2H 3580   2.211   5.017   4.264
    5POPC   C2I 3581   2.157   4.988   4.121
    5POPC   C2J 3582   2.268   4.945   4.025
    5POPC   C2K 3583   2.197   4.897   3.899
    5POPC   C2L 3584   2.297   4.865   3.787
    5POPC   C2M 3585   2.241   4.767   3.684
    5POPC   C2N 3586   2.329   4.769   3.561
    5POPC   C2O 3587   2.283   4.669   3.454
    5POPC   C2P 3588   2.377   4.666   3.334
    6POPC   CN1 3589   2.492   5.556   5.743
    6POPC   CN2 3590   2.372   5.414   5.590
    6POPC   CN3 3591   2.315   5.429   5.836
    6POPC   NTM 3592   2.427   5.424   5.732
    6POPC    CA 3593   2.527   5.309   5.773
    6POPC    CB 3594   2.454   5.171   5.768
    6POPC    OA 3595   2.405   5.149   5.634
    6POPC     P 3596   2.350   5.009   5.595
    6POPC    OB 3597   2.208   5.038   5.586
    6POPC    OC 3598   2.397   4.906   5.686
    6POPC    OD 3599   2.408   4.990   5.450
    6POPC    CC 3600   2.527   5.044   5.399
    6POPC    CD 3601   2.512   5.179   5.332
    6POPC    OE 3602   2.444   5.160   5.210
    6POPC   C1A 3603   2.391   5.270   5.157
    6POPC    OF 3604   2.388   5.383   5.207
    6POPC   C1B 3605   2.319   5.225   5.032
    6POPC   C1C 3606   2.261   5.337   4.940
    6POPC   C1D 3607   2.375   5.396   4.856
    6POPC   C1E 3608   2.330   5.477   4.737
    6POPC   C1F 3609   2.443   5.559   4.671
    6POPC   C1G 3610   2.386   5.610   4.535
    6POPC   C1H 3611   2.502   5.661   4.446
    6POPC   C1I 3612   2.426   5.728   4.331
    6POPC   C1J 3613   2.437   5.699   4.204
    6POPC   C1K 3614   2.512   5.592   4.138
    6POPC   C1L 3615   2.539   5.601   3.983
    6POPC   C1M 3616   2.642   5.713   3.964
    6POPC   C1N 3617   2.705   5.725   3.824
    6POPC   C1O 3618   2.611   5.708   3.700
    6POPC   C1P 3619   2.671   5.737   3.570
    6POPC   C1Q 3620   2.764   5.627   3.516
    6POPC   C1R 3621   2.843   5.676   3.388
    6POPC    CE 3622   2.640   5.253   5.322
    6POPC    OG 3623   2.737   5.183   5.241
    6POPC   C2A 3624   2.761   5.229   5.121
    6POPC    OH 3625   2.720   5.335   5.074
    6POPC   C2B 3626   2.850   5.134   5.046
    6POPC   C2C 3627   2.818   5.142   4.894
    6POPC   C2D 3628   2.886   5.036   4.812
    6POPC   C2E 3629   2.861   5.042   4.654
    6POPC   C2F 3630   2.934   4.937   4.567
    6POPC   C2G 3631   2.904   4.955   4.413
    6POPC   C2H 3632   2.962   4.839   4.331
    6POPC   C2I 3633   2.928   4.861   4.180
    6POPC   C2J 3634   2.961   4.738   4.096
    6POPC   C2K 3635   2.902   4.766   3.958
    6POPC   C2L 3636   2.941   4.656   3.858
    6POPC   C2M 3637   2.843   4.647   3.740
    6POPC   C2N 3638   2.906   4.565   3.630
    6POPC   C2O 3639   2.812   4.545   3.510
    6POPC   C2P 3640   2.873   4.455   3.404
    7POPC   CN1 3641   1.847   1.260   5.684
    7POPC   CN2 3642   1.835   1.050   5.565
    7POPC   CN3 3643   1.805   1.067   5.816
    7POPC   NTM 3644   1.883   1.117   5.694
    7POPC    CA 3645   2.037   1.101   5.724
    7POPC    CB 3646   2.072   0.949   5.742
    7POPC    OA 3647   2.038   0.879   5.621
    7POPC     P 3648   2.084   0.732   5.601
    7POPC    OB 3649   1.957   0.663   5.616
    7POPC    OC 3650   2.195   0.699   5.690
    7POPC    OD 3651   2.127   0.729   5.450
    7POPC    CC 3652   2.176   0.838   5.376
    7POPC    CD 3653   2.071   0.919   5.303
    7POPC    OE 3654   2.021   0.841   5.197
    7POPC   C1A 3655   1.905   0.882   5.146
    7POPC    OF 3656   1.833   0.974   5.188
    7POPC   C1B 3657   1.868   0.781   5.040
    7POPC   C1C 3658   1.743   0.813   4.952
    7POPC   C1D 3659   1.783   0.916   4.845
    7POPC   C1E 3660   1.686   0.929   4.730
    7POPC   C1F 3661   1.711   1.051   4.640
    7POPC   C1G 3662   1.622   1.030   4.513
    7POPC   C1H 3663   1.669   1.127   4.402
    7POPC   C1I 3664   1.557   1.111   4.298
    7POPC   C1J 3665   1.572   1.074   4.173
    7POPC   C1K 3666   1.693   1.030   4.102
    7POPC   C1L 3667   1.694   1.028   3.945
    7POPC   C1M 3668   1.696   1.175   3.901
    7POPC   C1N 3669   1.723   1.201   3.750
    7POPC   C1O 3670   1.653   1.107   3.647
    7POPC   C1P 3671   1.666   1.145   3.507
    7POPC   C1Q 3672   1.804   1.112   3.445
    7POPC   C1R 3673   1.820   1.178   3.302
    7POPC    CE 3674   2.118   1.054   5.265
    7POPC    OG 3675   2.229   1.049   5.173
    7POPC   C2A 3676   2.207   1.079   5.048
    7POPC    OH 3677   2.102   1.125   5.001
    7POPC   C2B 3678   2.329   1.051   4.965
    7POPC   C2C 3679   2.286   1.011   4.821
    7POPC   C2D 3680   2.399   0.961   4.736
    7POPC   C2E 3681   2.362   0.923   4.585
    7POPC   C2F 3682   2.477   0.876   4.493
    7POPC   C2G 3683   2.429   0.845   4.347
    7POPC   C2H 3684   2.540   0.780   4.264
    7POPC   C2I 3685   2.487   0.750   4.120
    7POPC   C2J 3686   2.585   0.664   4.040
    7POPC   C2K 3687   2.510   0.624   3.914
    7POPC   C2L 3688   2.601   0.549   3.816
    7POPC   C2M 3689   2.523   0.461   3.718
    7POPC   C2N 3690   2.614   0.420   3.604
    7POPC   C2O 3691   2.545   0.326   3.505
    7POPC   C2P 3692   2.640   0.278   3.395
    8POPC   CN1 3693   1.172   2.946   5.701
    8POPC   CN2 3694   0.953   2.957   5.602
    8POPC   CN3 3695   0.988   2.932   5.851
    8POPC   NTM 3696   1.036   2.891   5.712
    8POPC    CA 3697   1.040   2.733   5.706
    8POPC    CB 3698   0.895   2.675   5.725
    8POPC    OA 3699   0.811   2.726   5.620
    8POPC     P 3700   0.669   2.667   5.599
    8POPC    OB 3701   0.588   2.776   5.648
    8POPC    OC 3702   0.658   2.535   5.662
    8POPC    OD 3703   0.658   2.659   5.443
    8POPC    CC 3704   0.764   2.641   5.352
    8POPC    CD 3705   0.825   2.770   5.301
    8POPC    OE 3706   0.733   2.832   5.214
    8POPC   C1A 3707   0.755   2.961   5.190
    8POPC    OF 3708   0.842   3.032   5.242
    8POPC   C1B 3709   0.641   3.006   5.102
    8POPC   C1C 3710   0.651   3.151   5.043
    8POPC   C1D 3711   0.748   3.149   4.924
    8POPC   C1E 3712   0.738   3.271   4.834
    8POPC   C1F 3713   0.854   3.282   4.732
    8POPC   C1G 3714   0.812   3.394   4.631
    8POPC   C1H 3715   0.903   3.387   4.506
    8POPC   C1I 3716   0.864   3.516   4.433
    8POPC   C1J 3717   0.818   3.523   4.310
    8POPC   C1K 3718   0.781   3.417   4.216
    8POPC   C1L 3719   0.765   3.451   4.063
    8POPC   C1M 3720   0.907   3.478   4.010
    8POPC   C1N 3721   0.921   3.489   3.857
    8POPC   C1O 3722   0.811   3.568   3.779
    8POPC   C1P 3723   0.838   3.591   3.637
    8POPC   C1Q 3724   0.815   3.467   3.547
    8POPC   C1R 3725   0.868   3.492   3.401
    8POPC    CE 3726   0.961   2.751   5.245
    8POPC    OG 3727   0.960   2.664   5.130
    8POPC   C2A 3728   0.975   2.717   5.012
    8POPC    OH 3729   1.005   2.834   4.988
    8POPC   C2B 3730   0.955   2.614   4.905
    8POPC   C2C 3731   0.897   2.682   4.778
    8POPC   C2D 3732   0.852   2.585   4.672
    8POPC   C2E 3733   0.797   2.650   4.536
    8POPC   C2F 3734   0.755   2.552   4.424
    8POPC   C2G 3735   0.705   2.627   4.294
    8POPC   C2H 3736   0.646   2.529   4.192
    8POPC   C2I 3737   0.597   2.609   4.067
    8POPC   C2J 3738   0.515   2.521   3.972
    8POPC   C2K 3739   0.456   2.616   3.869
    8POPC   C2L 3740   0.383   2.540   3.758
    8POPC   C2M 3741   0.278   2.626   3.687
    8POPC   C2N 3742   0.237   2.558   3.558
    8POPC   C2O 3743   0.127   2.634   3.484
    8POPC   C2P 3744   0.081   2.560   3.358
    9POPC   CN1 3745   3.511   4.331   5.769
    9POPC   CN2 3746   3.640   4.191   5.620
    9POPC   CN3 3747   3.635   4.156   5.871
    9POPC   NTM 3748   3.639   4.258   5.757
    9POPC    CA 3749   3.760   4.357   5.785
    9POPC    CB 3750   3.895   4.277   5.780
    9POPC    OA 3751   3.908   4.216   5.650
    9POPC     P 3752   4.044   4.152   5.609
    9POPC    OB 3753   4.008   4.012   5.615
    9POPC    OC 3754   4.153   4.202   5.693
    9POPC    OD 3755   4.059   4.196   5.459
    9POPC    CC 3756   4.007   4.313   5.402
    9POPC    CD 3757   3.869   4.299   5.342
    9POPC    OE 3758   3.879   4.221   5.225
    9POPC   C1A 3759   3.765   4.169   5.182
    9POPC    OF 3760   3.654   4.175   5.237
    9POPC   C1B 3761   3.801   4.084   5.062
    9POPC   C1C 3762   3.683   4.024   4.979
    9POPC   C1D 3763   3.625   4.134   4.889
    9POPC   C1E 3764   3.536   4.083   4.777
    9POPC   C1F 3765   3.456   4.193   4.705
    9POPC   C1G 3766   3.397   4.127   4.577
    9POPC   C1H 3767   3.347   4.238   4.481
    9POPC   C1I 3768   3.270   4.155   4.376
    9POPC   C1J 3769   3.294   4.154   4.247
    9POPC   C1K 3770   3.401   4.219   4.170
    9POPC   C1L 3771   3.386   4.234   4.014
    9POPC   C1M 3772   3.278   4.340   3.992
    9POPC   C1N 3773   3.262   4.392   3.847
    9POPC   C1O 3774   3.270   4.287   3.731
    9POPC   C1P 3775   3.237   4.337   3.598
    9POPC   C1Q 3776   3.349   4.421   3.532
    9POPC   C1R 3777   3.297   4.491   3.400
    9POPC    CE 3778   3.800   4.429   5.324
    9POPC    OG 3779   3.870   4.515   5.232
    9POPC   C2A 3780   3.820   4.532   5.112
    9POPC    OH 3781   3.710   4.492   5.073
    9POPC   C2B 3782   3.914   4.610   5.027
    9POPC   C2C 3783   3.898   4.566   4.878
    9POPC   C2D 3784   4.003   4.622   4.786
    9POPC   C2E 3785   3.988   4.585   4.632
    9POPC   C2F 3786   4.092   4.646   4.534
    9POPC   C2G 3787   4.066   4.604   4.384
    9POPC   C2H 3788   4.180   4.649   4.293
    9POPC   C2I 3789   4.150   4.604   4.146
    9POPC   C2J 3790   4.271   4.625   4.054
    9POPC   C2K 3791   4.234   4.556   3.924
    9POPC   C2L 3792   4.340   4.581   3.816
    9POPC   C2M 3793   4.340   4.474   3.706
    9POPC   C2N 3794   4.419   4.523   3.588
    9POPC   C2O 3795   4.429   4.419   3.476
    9POPC   C2P 3796   4.517   4.467   3.361
   10POPC   CN1 3797   4.398   2.581   5.757
   10POPC   CN2 3798   4.518   2.419   5.623
   10POPC   CN3 3799   4.523   2.419   5.876
   10POPC   NTM 3800   4.524   2.504   5.749
   10POPC    CA 3801   4.648   2.603   5.758
   10POPC    CB 3802   4.781   2.520   5.758
   10POPC    OA 3803   4.787   2.442   5.638
   10POPC     P 3804   4.920   2.369   5.600
   10POPC    OB 3805   4.882   2.232   5.626
   10POPC    OC 3806   5.034   2.428   5.670
   10POPC    OD 3807   4.928   2.393   5.445
   10POPC    CC 3808   4.876   2.502   5.374
   10POPC    CD 3809   4.734   2.483   5.323
   10POPC    OE 3810   4.738   2.389   5.218
   10POPC   C1A 3811   4.621   2.334   5.187
   10POPC    OF 3812   4.513   2.350   5.245
   10POPC   C1B 3813   4.650   2.233   5.078
   10POPC   C1C 3814   4.527   2.164   5.010
   10POPC   C1D 3815   4.467   2.262   4.908
   10POPC   C1E 3816   4.372   2.198   4.808
   10POPC   C1F 3817   4.291   2.300   4.726
   10POPC   C1G 3818   4.224   2.218   4.610
   10POPC   C1H 3819   4.172   2.315   4.502
   10POPC   C1I 3820   4.089   2.221   4.413
   10POPC   C1J 3821   4.107   2.202   4.285
   10POPC   C1K 3822   4.212   2.253   4.195
   10POPC   C1L 3823   4.190   2.247   4.039
   10POPC   C1M 3824   4.082   2.351   4.007
   10POPC   C1N 3825   4.060   2.383   3.858
   10POPC   C1O 3826   4.061   2.263   3.757
   10POPC   C1P 3827   4.022   2.295   3.620
   10POPC   C1Q 3828   4.132   2.366   3.538
   10POPC   C1R 3829   4.076   2.419   3.400
   10POPC    CE 3830   4.667   2.611   5.290
   10POPC    OG 3831   4.734   2.682   5.184
   10POPC   C2A 3832   4.679   2.683   5.065
   10POPC    OH 3833   4.566   2.641   5.037
   10POPC   C2B 3834   4.771   2.746   4.966
   10POPC   C2C 3835   4.747   2.682   4.826
   10POPC   C2D 3836   4.848   2.723   4.722
   10POPC   C2E 3837   4.826   2.665   4.575
   10POPC   C2F 3838   4.925   2.710   4.465
   10POPC   C2G 3839   4.892   2.648   4.324
   10POPC   C2H 3840   5.003   2.678   4.223
   10POPC   C2I 3841   4.964   2.614   4.085
   10POPC   C2J 3842   5.081   2.619   3.986
   10POPC   C2K 3843   5.037   2.534   3.868
   10POPC   C2L 3844   5.139   2.541   3.753
   10POPC   C2M 3845   5.131   2.420   3.659
   10POPC   C2N 3846   5.206   2.451   3.532
   10POPC   C2O 3847   5.209   2.333   3.435
   10POPC   C2P 3848   5.292   2.362   3.311
   11POPC   CN1 3849   1.259   5.549   5.725
   11POPC   CN2 3850   1.355   5.359   5.612
   11POPC   CN3 3851   1.363   5.386   5.864
   11POPC   NTM 3852   1.374   5.456   5.728
   11POPC    CA 3853   1.510   5.537   5.726
   11POPC    CB 3854   1.630   5.438   5.737
   11POPC    OA 3855   1.626   5.346   5.626
   11POPC     P 3856   1.747   5.253   5.598
   11POPC    OB 3857   1.691   5.126   5.640
   11POPC    OC 3858   1.868   5.303   5.662
   11POPC    OD 3859   1.757   5.257   5.441
   11POPC    CC 3860   1.719   5.363   5.358
   11POPC    CD 3861   1.576   5.357   5.308
   11POPC    OE 3862   1.566   5.252   5.215
   11POPC   C1A 3863   1.442   5.211   5.189
   11POPC    OF 3864   1.338   5.248   5.245
   11POPC   C1B 3865   1.457   5.095   5.093
   11POPC   C1C 3866   1.326   5.036   5.033
   11POPC   C1D 3867   1.278   5.129   4.919
   11POPC   C1E 3868   1.175   5.067   4.827
   11POPC   C1F 3869   1.107   5.169   4.733
   11POPC   C1G 3870   1.029   5.083   4.627
   11POPC   C1H 3871   0.990   5.174   4.508
   11POPC   C1I 3872   0.895   5.082   4.430
   11POPC   C1J 3873   0.909   5.046   4.305
   11POPC   C1K 3874   1.018   5.072   4.211
   11POPC   C1L 3875   0.994   5.051   4.056
   11POPC   C1M 3876   0.901   5.165   4.012
   11POPC   C1N 3877   0.883   5.182   3.859
   11POPC   C1O 3878   0.867   5.052   3.773
   11POPC   C1P 3879   0.832   5.073   3.633
   11POPC   C1Q 3880   0.950   5.119   3.544
   11POPC   C1R 3881   0.900   5.162   3.401
   11POPC    CE 3882   1.526   5.489   5.260
   11POPC    OG 3883   1.602   5.537   5.148
   11POPC   C2A 3884   1.546   5.532   5.029
   11POPC    OH 3885   1.429   5.503   5.005
   11POPC   C2B 3886   1.645   5.571   4.924
   11POPC   C2C 3887   1.611   5.495   4.792
   11POPC   C2D 3888   1.716   5.510   4.685
   11POPC   C2E 3889   1.685   5.439   4.545
   11POPC   C2F 3890   1.789   5.456   4.432
   11POPC   C2G 3891   1.746   5.385   4.299
   11POPC   C2H 3892   1.860   5.387   4.195
   11POPC   C2I 3893   1.812   5.314   4.065
   11POPC   C2J 3894   1.927   5.291   3.967
   11POPC   C2K 3895   1.872   5.199   3.859
   11POPC   C2L 3896   1.972   5.180   3.745
   11POPC   C2M 3897   1.948   5.051   3.666
   11POPC   C2N 3898   2.025   5.057   3.536
   11POPC   C2O 3899   2.011   4.929   3.454
   11POPC   C2P 3900   2.096   4.932   3.328
   12POPC   CN1 3901   0.815   5.530   5.762
   12POPC   CN2 3902   0.894   5.358   5.611
   12POPC   CN3 3903   0.863   5.318   5.859
   12POPC   NTM 3904   0.909   5.416   5.751
   12POPC    CA 3905   1.056   5.463   5.787
   12POPC    CB 3906   1.153   5.340   5.783
   12POPC    OA 3907   1.151   5.284   5.652
   12POPC     P 3908   1.256   5.176   5.612
   12POPC    OB 3909   1.172   5.058   5.609
   12POPC    OC 3910   1.372   5.180   5.701
   12POPC    OD 3911   1.293   5.218   5.465
   12POPC    CC 3912   1.290   5.347   5.411
   12POPC    CD 3913   1.159   5.386   5.347
   12POPC    OE 3914   1.146   5.313   5.226
   12POPC   C1A 3915   1.023   5.308   5.176
   12POPC    OF 3916   0.919   5.351   5.228
   12POPC   C1B 3917   1.032   5.220   5.053
   12POPC   C1C 3918   0.905   5.209   4.964
   12POPC   C1D 3919   0.894   5.336   4.877
   12POPC   C1E 3920   0.799   5.324   4.760
   12POPC   C1F 3921   0.768   5.459   4.692
   12POPC   C1G 3922   0.695   5.423   4.558
   12POPC   C1H 3923   0.693   5.547   4.466
   12POPC   C1I 3924   0.598   5.501   4.355
   12POPC   C1J 3925   0.626   5.496   4.227
   12POPC   C1K 3926   0.753   5.521   4.157
   12POPC   C1L 3927   0.752   5.546   4.001
   12POPC   C1M 3928   0.690   5.685   3.981
   12POPC   C1N 3929   0.701   5.743   3.838
   12POPC   C1O 3930   0.676   5.647   3.717
   12POPC   C1P 3931   0.670   5.710   3.586
   12POPC   C1Q 3932   0.808   5.750   3.528
   12POPC   C1R 3933   0.791   5.839   3.398
   12POPC    CE 3934   1.142   5.533   5.333
   12POPC    OG 3935   1.243   5.591   5.248
   12POPC   C2A 3936   1.208   5.629   5.127
   12POPC    OH 3937   1.094   5.633   5.083
   12POPC   C2B 3938   1.329   5.670   5.049
   12POPC   C2C 3939   1.305   5.640   4.898
   12POPC   C2D 3940   1.428   5.658   4.813
   12POPC   C2E 3941   1.408   5.634   4.656
   12POPC   C2F 3942   1.532   5.656   4.565
   12POPC   C2G 3943   1.500   5.632   4.413
   12POPC   C2H 3944   1.627   5.636   4.327
   12POPC   C2I 3945   1.590   5.611   4.178
   12POPC   C2J 3946   1.714   5.589   4.091
   12POPC   C2K 3947   1.662   5.543   3.956
   12POPC   C2L 3948   1.776   5.531   3.853
   12POPC   C2M 3949   1.742   5.436   3.738
   12POPC   C2N 3950   1.840   5.458   3.625
   12POPC   C2O 3951   1.818   5.361   3.509
   12POPC   C2P 3952   1.922   5.378   3.399
   13POPC   CN1 3953   5.296   5.264   5.725
   13POPC   CN2 3954   5.199   5.448   5.603
   13POPC   CN3 3955   5.204   5.438   5.856
   13POPC   NTM 3956   5.184   5.359   5.726
   13POPC    CA 3957   5.046   5.282   5.736
   13POPC    CB 3958   4.929   5.385   5.746
   13POPC    OA 3959   4.930   5.469   5.629
   13POPC     P 3960   4.810   5.564   5.600
   13POPC    OB 3961   4.871   5.692   5.629
   13POPC    OC 3962   4.692   5.521   5.673
   13POPC    OD 3963   4.792   5.549   5.445
   13POPC    CC 3964   4.823   5.436   5.367
   13POPC    CD 3965   4.964   5.434   5.311
   13POPC    OE 3966   4.971   5.532   5.209
   13POPC   C1A 3967   5.095   5.568   5.175
   13POPC    OF 3968   5.201   5.532   5.228
   13POPC   C1B 3969   5.078   5.677   5.072
   13POPC   C1C 3970   5.208   5.728   5.001
   13POPC   C1D 3971   5.248   5.626   4.892
   13POPC   C1E 3972   5.347   5.678   4.791
   13POPC   C1F 3973   5.408   5.568   4.701
   13POPC   C1G 3974   5.482   5.643   4.586
   13POPC   C1H 3975   5.514   5.543   4.472
   13POPC   C1I 3976   5.607   5.627   4.383
   13POPC   C1J 3977   5.588   5.654   4.256
   13POPC   C1K 3978   5.473   5.625   4.170
   13POPC   C1L 3979   5.490   5.634   4.013
   13POPC   C1M 3980   5.577   5.515   3.973
   13POPC   C1N 3981   5.588   5.487   3.821
   13POPC   C1O 3982   5.603   5.609   3.725
   13POPC   C1P 3983   5.630   5.578   3.585
   13POPC   C1Q 3984   5.507   5.529   3.506
   13POPC   C1R 3985   5.549   5.474   3.364
   13POPC    CE 3986   5.008   5.298   5.270
   13POPC    OG 3987   4.926   5.244   5.165
   13POPC   C2A 3988   4.976   5.239   5.044
   13POPC    OH 3989   5.092   5.263   5.012
   13POPC   C2B 3990   4.871   5.196   4.946
   13POPC   C2C 3991   4.899   5.261   4.807
   13POPC   C2D 3992   4.789   5.241   4.708
   13POPC   C2E 3993   4.815   5.302   4.562
   13POPC   C2F 3994   4.705   5.279   4.455
   13POPC   C2G 3995   4.743   5.340   4.315
   13POPC   C2H 3996   4.624   5.333   4.217
   13POPC   C2I 3997   4.667   5.396   4.081
   13POPC   C2J 3998   4.548   5.415   3.987
   13POPC   C2K 3999   4.600   5.497   3.870
   13POPC   C2L 4000   4.494   5.511   3.760
   13POPC   C2M 4001   4.518   5.633   3.670
   13POPC   C2N 4002   4.434   5.620   3.545
   13POPC   C2O 4003   4.447   5.742   3.453
   13POPC   C2P 4004   4.356   5.732   3.332
   14POPC   CN1 4005   0.445   1.889   5.771
   14POPC   CN2 4006   0.260   1.797   5.646
   14POPC   CN3 4007   0.262   1.806   5.898
   14POPC   NTM 4008   0.344   1.781   5.772
   14POPC    CA 4009   0.415   1.640   5.787
   14POPC    CB 4010   0.306   1.527   5.796
   14POPC    OA 4011   0.227   1.530   5.676
   14POPC     P 4012   0.128   1.414   5.647
   14POPC    OB 4013   0.002   1.481   5.671
   14POPC    OC 4014   0.162   1.295   5.724
   14POPC    OD 4015   0.147   1.391   5.492
   14POPC    CC 4016   0.263   1.416   5.418
   14POPC    CD 4017   0.273   1.555   5.359
   14POPC    OE 4018   0.179   1.565   5.254
   14POPC   C1A 4019   0.149   1.689   5.216
   14POPC    OF 4020   0.188   1.794   5.268
   14POPC   C1B 4021   0.042   1.675   5.110
   14POPC   C1C 4022   0.000   1.805   5.035
   14POPC   C1D 4023   0.107   1.838   4.929
   14POPC   C1E 4024   0.062   1.938   4.824
   14POPC   C1F 4025   0.177   1.991   4.736
   14POPC   C1G 4026   0.109   2.067   4.617
   14POPC   C1H 4027   0.214   2.091   4.506
   14POPC   C1I 4028   0.138   2.186   4.412
   14POPC   C1J 4029   0.113   2.165   4.285
   14POPC   C1K 4030   0.140   2.048   4.202
   14POPC   C1L 4031   0.136   2.062   4.045
   14POPC   C1M 4032   0.261   2.143   4.007
   14POPC   C1N 4033   0.294   2.149   3.856
   14POPC   C1O 4034   0.175   2.168   3.756
   14POPC   C1P 4035   0.212   2.191   3.617
   14POPC   C1Q 4036   0.258   2.063   3.541
   14POPC   C1R 4037   0.319   2.100   3.400
   14POPC    CE 4038   0.412   1.592   5.321
   14POPC    OG 4039   0.466   1.506   5.220
   14POPC   C2A 4040   0.476   1.553   5.098
   14POPC    OH 4041   0.458   1.669   5.063
   14POPC   C2B 4042   0.518   1.444   5.004
   14POPC   C2C 4043   0.458   1.473   4.863
   14POPC   C2D 4044   0.476   1.359   4.766
   14POPC   C2E 4045   0.421   1.385   4.617
   14POPC   C2F 4046   0.443   1.271   4.514
   14POPC   C2G 4047   0.388   1.309   4.371
   14POPC   C2H 4048   0.392   1.189   4.276
   14POPC   C2I 4049   0.336   1.231   4.137
   14POPC   C2J 4050   0.315   1.110   4.044
   14POPC   C2K 4051   0.238   1.164   3.924
   14POPC   C2L 4052   0.223   1.057   3.816
   14POPC   C2M 4053   0.105   1.084   3.722
   14POPC   C2N 4054   0.118   0.997   3.599
   14POPC   C2O 4055  -0.000   1.013   3.503
   14POPC   C2P 4056   0.009   0.919   3.384
   15POPC   CN1 4057   4.416   1.468   5.759
   15POPC   CN2 4058   4.227   1.482   5.610
   15POPC   CN3 4059   4.208   1.525   5.859
   15POPC   NTM 4060   4.272   1.439   5.749
   15POPC    CA 4061   4.245   1.287   5.784
   15POPC    CB 4062   4.090   1.259   5.780
   15POPC    OA 4063   4.040   1.289   5.649
   15POPC     P 4064   3.895   1.248   5.610
   15POPC    OB 4065   3.831   1.377   5.609
   15POPC    OC 4066   3.846   1.143   5.699
   15POPC    OD 4067   3.913   1.197   5.463
   15POPC    CC 4068   4.029   1.139   5.407
   15POPC    CD 4069   4.124   1.238   5.343
   15POPC    OE 4070   4.065   1.285   5.224
   15POPC   C1A 4071   4.118   1.396   5.175
   15POPC    OF 4072   4.206   1.467   5.226
   15POPC   C1B 4073   4.035   1.431   5.053
   15POPC   C1C 4074   4.085   1.550   4.965
   15POPC   C1D 4075   4.201   1.500   4.876
   15POPC   C1E 4076   4.234   1.591   4.760
   15POPC   C1F 4077   4.367   1.556   4.690
   15POPC   C1G 4078   4.369   1.639   4.557
   15POPC   C1H 4079   4.479   1.583   4.464
   15POPC   C1I 4080   4.483   1.690   4.354
   15POPC   C1J 4081   4.464   1.669   4.226
   15POPC   C1K 4082   4.425   1.546   4.155
   15POPC   C1L 4083   4.446   1.537   3.999
   15POPC   C1M 4084   4.598   1.527   3.977
   15POPC   C1N 4085   4.644   1.491   3.834
   15POPC   C1O 4086   4.569   1.560   3.714
   15POPC   C1P 4087   4.627   1.537   3.582
   15POPC   C1Q 4088   4.597   1.397   3.523
   15POPC   C1R 4089   4.682   1.372   3.392
   15POPC    CE 4090   4.262   1.183   5.327
   15POPC    OG 4091   4.265   1.068   5.241
   15POPC   C2A 4092   4.314   1.083   5.121
   15POPC    OH 4093   4.371   1.182   5.077
   15POPC   C2B 4094   4.293   0.957   5.041
   15POPC   C2C 4095   4.276   0.994   4.890
   15POPC   C2D 4096   4.234   0.879   4.804
   15POPC   C2E 4097   4.220   0.909   4.648
   15POPC   C2F 4098   4.181   0.791   4.556
   15POPC   C2G 4099   4.174   0.832   4.404
   15POPC   C2H 4100   4.117   0.719   4.318
   15POPC   C2I 4101   4.111   0.765   4.169
   15POPC   C2J 4102   4.033   0.666   4.081
   15POPC   C2K 4103   4.015   0.736   3.947
   15POPC   C2L 4104   3.951   0.643   3.844
   15POPC   C2M 4105   3.881   0.719   3.730
   15POPC   C2N 4106   3.854   0.623   3.617
   15POPC   C2O 4107   3.778   0.690   3.502
   15POPC   C2P 4108   3.743   0.591   3.391
   16POPC   CN1 4109   2.622   1.665   5.760
   16POPC   CN2 4110   2.611   1.467   5.623
   16POPC   CN3 4111   2.612   1.459   5.876
   16POPC   NTM 4112   2.669   1.526   5.751
   16POPC    CA 4113   2.827   1.521   5.760
   16POPC    CB 4114   2.876   1.372   5.759
   16POPC    OA 4115   2.831   1.310   5.637
   16POPC     P 4116   2.886   1.169   5.598
   16POPC    OB 4117   2.768   1.089   5.622
   16POPC    OC 4118   3.010   1.139   5.669
   16POPC    OD 4119   2.909   1.184   5.443
   16POPC    CC 4120   2.940   1.302   5.374
   16POPC    CD 4121   2.820   1.379   5.324
   16POPC    OE 4122   2.763   1.307   5.217
   16POPC   C1A 4123   2.638   1.341   5.185
   16POPC    OF 4124   2.566   1.422   5.244
   16POPC   C1B 4125   2.596   1.247   5.075
   16POPC   C1C 4126   2.459   1.275   5.006
   16POPC   C1D 4127   2.477   1.390   4.906
   16POPC   C1E 4128   2.364   1.403   4.805
   16POPC   C1F 4129   2.369   1.535   4.724
   16POPC   C1G 4130   2.266   1.517   4.608
   16POPC   C1H 4131   2.290   1.627   4.502
   16POPC   C1I 4132   2.167   1.609   4.411
   16POPC   C1J 4133   2.169   1.585   4.282
   16POPC   C1K 4134   2.282   1.558   4.194
   16POPC   C1L 4135   2.263   1.570   4.037
   16POPC   C1M 4136   2.249   1.720   4.008
   16POPC   C1N 4137   2.253   1.760   3.859
   16POPC   C1O 4138   2.178   1.670   3.756
   16POPC   C1P 4139   2.170   1.721   3.619
   16POPC   C1Q 4140   2.301   1.705   3.538
   16POPC   C1R 4141   2.293   1.784   3.401
   16POPC    CE 4142   2.851   1.521   5.293
   16POPC    OG 4143   2.949   1.533   5.188
   16POPC   C2A 4144   2.909   1.572   5.070
   16POPC    OH 4145   2.796   1.613   5.041
   16POPC   C2B 4146   3.021   1.562   4.971
   16POPC   C2C 4147   2.963   1.531   4.830
   16POPC   C2D 4148   3.067   1.498   4.727
   16POPC   C2E 4149   3.014   1.471   4.579
   16POPC   C2F 4150   3.120   1.442   4.470
   16POPC   C2G 4151   3.056   1.419   4.328
   16POPC   C2H 4152   3.161   1.371   4.226
   16POPC   C2I 4153   3.092   1.349   4.088
   16POPC   C2J 4154   3.185   1.279   3.988
   16POPC   C2K 4155   3.097   1.244   3.869
   16POPC   C2L 4156   3.181   1.186   3.754
   16POPC   C2M 4157   3.097   1.100   3.658
   16POPC   C2N 4158   3.176   1.077   3.531
   16POPC   C2O 4159   3.102   0.986   3.432
   16POPC   C2P 4160   3.186   0.956   3.308
   17POPC   CN1 4161   3.656   2.905   5.754
   17POPC   CN2 4162   3.729   2.735   5.600
   17POPC   CN3 4163   3.695   2.690   5.847
   17POPC   NTM 4164   3.746   2.789   5.742
   17POPC    CA 4165   3.894   2.829   5.780
   17POPC    CB 4166   3.986   2.703   5.774
   17POPC    OA 4167   3.983   2.649   5.641
   17POPC     P 4168   4.084   2.539   5.600
   17POPC    OB 4169   3.996   2.424   5.593
   17POPC    OC 4170   4.199   2.536   5.690
   17POPC    OD 4171   4.125   2.582   5.454
   17POPC    CC 4172   4.127   2.713   5.404
   17POPC    CD 4173   3.998   2.758   5.339
   17POPC    OE 4174   3.984   2.689   5.217
   17POPC   C1A 4175   3.861   2.689   5.165
   17POPC    OF 4176   3.759   2.736   5.217
   17POPC   C1B 4177   3.868   2.604   5.041
   17POPC   C1C 4178   3.741   2.600   4.950
   17POPC   C1D 4179   3.737   2.729   4.866
   17POPC   C1E 4180   3.643   2.724   4.748
   17POPC   C1F 4181   3.617   2.861   4.682
   17POPC   C1G 4182   3.544   2.831   4.547
   17POPC   C1H 4183   3.548   2.958   4.458
   17POPC   C1I 4184   3.452   2.918   4.345
   17POPC   C1J 4185   3.482   2.915   4.217
   17POPC   C1K 4186   3.610   2.936   4.149
   17POPC   C1L 4187   3.612   2.965   3.994
   17POPC   C1M 4188   3.556   3.107   3.976
   17POPC   C1N 4189   3.570   3.168   3.835
   17POPC   C1O 4190   3.543   3.076   3.712
   17POPC   C1P 4191   3.541   3.142   3.582
   17POPC   C1Q 4192   3.681   3.178   3.526
   17POPC   C1R 4193   3.669   3.270   3.398
   17POPC    CE 4194   3.987   2.906   5.328
   17POPC    OG 4195   4.091   2.962   5.246
   17POPC   C2A 4196   4.059   3.004   5.126
   17POPC    OH 4197   3.945   3.014   5.080
   17POPC   C2B 4198   4.182   3.043   5.050
   17POPC   C2C 4199   4.159   3.017   4.898
   17POPC   C2D 4200   4.283   3.032   4.814
   17POPC   C2E 4201   4.264   3.012   4.657
   17POPC   C2F 4202   4.389   3.032   4.567
   17POPC   C2G 4203   4.358   3.013   4.414
   17POPC   C2H 4204   4.487   3.014   4.331
   17POPC   C2I 4205   4.450   2.993   4.180
   17POPC   C2J 4206   4.574   2.969   4.094
   17POPC   C2K 4207   4.522   2.928   3.957
   17POPC   C2L 4208   4.636   2.914   3.855
   17POPC   C2M 4209   4.600   2.823   3.738
   17POPC   C2N 4210   4.700   2.843   3.626
   17POPC   C2O 4211   4.675   2.750   3.508
   17POPC   C2P 4212   4.781   2.766   3.399
   18POPC   CN1 4213   0.575   1.237   5.724
   18POPC   CN2 4214   0.396   1.118   5.613
   18POPC   CN3 4215   0.425   1.116   5.864
   18POPC   NTM 4216   0.495   1.112   5.728
   18POPC    CA 4217   0.592   0.986   5.727
   18POPC    CB 4218   0.507   0.855   5.739
   18POPC    OA 4219   0.415   0.849   5.629
   18POPC     P 4220   0.336   0.717   5.602
   18POPC    OB 4221   0.203   0.758   5.643
   18POPC    OC 4222   0.400   0.603   5.667
   18POPC    OD 4223   0.340   0.706   5.445
   18POPC    CC 4224   0.441   0.755   5.361
   18POPC    CD 4225   0.419   0.896   5.311
   18POPC    OE 4226   0.313   0.893   5.217
   18POPC   C1A 4227   0.258   1.011   5.191
   18POPC    OF 4228   0.283   1.120   5.246
   18POPC   C1B 4229   0.144   0.983   5.095
   18POPC   C1C 4230   0.071   1.106   5.034
   18POPC   C1D 4231   0.157   1.163   4.920
   18POPC   C1E 4232   0.083   1.258   4.827
   18POPC   C1F 4233   0.176   1.336   4.732
   18POPC   C1G 4234   0.083   1.403   4.626
   18POPC   C1H 4235   0.168   1.452   4.506
   18POPC   C1I 4236   0.065   1.535   4.428
   18POPC   C1J 4237   0.031   1.516   4.303
   18POPC   C1K 4238   0.069   1.409   4.210
   18POPC   C1L 4239   0.045   1.429   4.055
   18POPC   C1M 4240   0.147   1.535   4.009
   18POPC   C1N 4241   0.161   1.554   3.857
   18POPC   C1O 4242   0.030   1.554   3.771
   18POPC   C1P 4243   0.047   1.590   3.631
   18POPC   C1Q 4244   0.105   1.477   3.542
   18POPC   C1R 4245   0.142   1.531   3.398
   18POPC    CE 4246   0.544   0.961   5.262
   18POPC    OG 4247   0.600   0.891   5.149
   18POPC   C2A 4248   0.589   0.944   5.030
   18POPC    OH 4249   0.546   1.057   5.006
   18POPC   C2B 4250   0.638   0.850   4.925
   18POPC   C2C 4251   0.559   0.873   4.793
   18POPC   C2D 4252   0.585   0.770   4.688
   18POPC   C2E 4253   0.510   0.791   4.548
   18POPC   C2F 4254   0.539   0.689   4.435
   18POPC   C2G 4255   0.463   0.722   4.302
   18POPC   C2H 4256   0.478   0.610   4.199
   18POPC   C2I 4257   0.399   0.647   4.070
   18POPC   C2J 4258   0.390   0.529   3.972
   18POPC   C2K 4259   0.292   0.574   3.865
   18POPC   C2L 4260   0.284   0.470   3.751
   18POPC   C2M 4261   0.153   0.479   3.672
   18POPC   C2N 4262   0.167   0.402   3.543
   18POPC   C2O 4263   0.038   0.400   3.461
   18POPC   C2P 4264   0.051   0.315   3.335
   19POPC   CN1 4265   2.137   4.025   5.753
   19POPC   CN2 4266   2.013   3.869   5.618
   19POPC   CN3 4267   2.007   3.865   5.871
   19POPC   NTM 4268   2.094   3.884   5.746
   19POPC    CA 4269   2.219   3.788   5.759
   19POPC    CB 4270   2.170   3.639   5.759
   19POPC    OA 4271   2.100   3.613   5.637
   19POPC     P 4272   2.062   3.466   5.600
   19POPC    OB 4273   1.919   3.470   5.621
   19POPC    OC 4274   2.144   3.371   5.673
   19POPC    OD 4275   2.092   3.462   5.445
   19POPC    CC 4276   2.187   3.539   5.376
   19POPC    CD 4277   2.136   3.671   5.323
   19POPC    OE 4278   2.049   3.644   5.215
   19POPC   C1A 4279   1.969   3.744   5.181
   19POPC    OF 4280   1.957   3.853   5.238
   19POPC   C1B 4281   1.881   3.691   5.070
   19POPC   C1C 4282   1.787   3.793   4.998
   19POPC   C1D 4283   1.870   3.874   4.898
   19POPC   C1E 4284   1.788   3.949   4.795
   19POPC   C1F 4285   1.870   4.052   4.714
   19POPC   C1G 4286   1.778   4.096   4.595
   19POPC   C1H 4287   1.863   4.169   4.489
   19POPC   C1I 4288   1.755   4.226   4.396
   19POPC   C1J 4289   1.744   4.203   4.267
   19POPC   C1K 4290   1.821   4.113   4.181
   19POPC   C1L 4291   1.815   4.132   4.025
   19POPC   C1M 4292   1.891   4.261   3.994
   19POPC   C1N 4293   1.921   4.288   3.845
   19POPC   C1O 4294   1.808   4.258   3.741
   19POPC   C1P 4295   1.834   4.302   3.604
   19POPC   C1Q 4296   1.932   4.211   3.526
   19POPC   C1R 4297   1.974   4.278   3.388
   19POPC    CE 4298   2.245   3.767   5.292
   19POPC    OG 4299   2.333   3.718   5.189
   19POPC   C2A 4300   2.324   3.771   5.070
   19POPC    OH 4301   2.258   3.869   5.039
   19POPC   C2B 4302   2.411   3.696   4.973
   19POPC   C2C 4303   2.348   3.703   4.831
   19POPC   C2D 4304   2.415   3.613   4.731
   19POPC   C2E 4305   2.357   3.620   4.582
   19POPC   C2F 4306   2.428   3.532   4.475
   19POPC   C2G 4307   2.365   3.549   4.332
   19POPC   C2H 4308   2.423   3.448   4.232
   19POPC   C2I 4309   2.356   3.468   4.093
   19POPC   C2J 4310   2.392   3.355   3.995
   19POPC   C2K 4311   2.302   3.376   3.874
   19POPC   C2L 4312   2.337   3.278   3.761
   19POPC   C2M 4313   2.220   3.256   3.664
   19POPC   C2N 4314   2.273   3.190   3.539
   19POPC   C2O 4315   2.161   3.157   3.439
   19POPC   C2P 4316   2.213   3.083   3.317
   20POPC   CN1 4317   0.453   6.223   5.726
   20POPC   CN2 4318   0.484   6.027   5.589
   20POPC   CN3 4319   0.454   6.015   5.840
   20POPC   NTM 4320   0.517   6.090   5.724
   20POPC    CA 4321   0.672   6.105   5.753
   20POPC    CB 4322   0.738   5.962   5.758
   20POPC    OA 4323   0.718   5.897   5.632
   20POPC     P 4324   0.794   5.765   5.600
   20POPC    OB 4325   0.684   5.670   5.608
   20POPC    OC 4326   0.910   5.749   5.687
   20POPC    OD 4327   0.834   5.785   5.449
   20POPC    CC 4328   0.859   5.907   5.385
   20POPC    CD 4329   0.738   5.970   5.319
   20POPC    OE 4330   0.705   5.893   5.206
   20POPC   C1A 4331   0.582   5.913   5.159
   20POPC    OF 4332   0.493   5.984   5.208
   20POPC   C1B 4333   0.566   5.816   5.043
   20POPC   C1C 4334   0.437   5.828   4.958
   20POPC   C1D 4335   0.453   5.946   4.860
   20POPC   C1E 4336   0.354   5.948   4.746
   20POPC   C1F 4337   0.352   6.080   4.667
   20POPC   C1G 4338   0.268   6.052   4.538
   20POPC   C1H 4339   0.292   6.166   4.436
   20POPC   C1I 4340   0.184   6.135   4.330
   20POPC   C1J 4341   0.206   6.113   4.203
   20POPC   C1K 4342   0.333   6.101   4.129
   20POPC   C1L 4343   0.332   6.113   3.972
   20POPC   C1M 4344   0.303   6.261   3.941
   20POPC   C1N 4345   0.322   6.304   3.794
   20POPC   C1O 4346   0.272   6.207   3.682
   20POPC   C1P 4347   0.276   6.259   3.546
   20POPC   C1Q 4348   0.417   6.261   3.482
   20POPC   C1R 4349   0.417   6.340   3.345
   20POPC    CE 4350   0.756   6.115   5.293
   20POPC    OG 4351   0.864   6.141   5.202
   20POPC   C2A 4352   0.835   6.176   5.079
   20POPC    OH 4353   0.723   6.204   5.036
   20POPC   C2B 4354   0.959   6.182   4.996
   20POPC   C2C 4355   0.924   6.147   4.848
   20POPC   C2D 4356   1.044   6.128   4.760
   20POPC   C2E 4357   1.014   6.097   4.606
   20POPC   C2F 4358   1.136   6.082   4.511
   20POPC   C2G 4359   1.094   6.054   4.362
   20POPC   C2H 4360   1.215   6.022   4.275
   20POPC   C2I 4361   1.168   5.994   4.129
   20POPC   C2J 4362   1.281   5.937   4.042
   20POPC   C2K 4363   1.214   5.893   3.912
   20POPC   C2L 4364   1.318   5.847   3.809
   20POPC   C2M 4365   1.259   5.753   3.703
   20POPC   C2N 4366   1.355   5.743   3.588
   20POPC   C2O 4367   1.307   5.645   3.480
   20POPC   C2P 4368   1.408   5.628   3.368
   21POPC   CN1 4369   0.933   4.302   5.754
   21POPC   CN2 4370   0.923   4.105   5.615
   21POPC   CN3 4371   0.886   4.097   5.865
   21POPC   NTM 4372   0.967   4.159   5.751
   21POPC    CA 4373   1.121   4.139   5.783
   21POPC    CB 4374   1.155   3.986   5.787
   21POPC    OA 4375   1.123   3.928   5.659
   21POPC     P 4376   1.170   3.783   5.626
   21POPC    OB 4377   1.043   3.714   5.631
   21POPC    OC 4378   1.278   3.742   5.714
   21POPC    OD 4379   1.217   3.796   5.476
   21POPC    CC 4380   1.269   3.911   5.414
   21POPC    CD 4381   1.165   3.999   5.348
   21POPC    OE 4382   1.118   3.932   5.233
   21POPC   C1A 4383   1.004   3.979   5.183
   21POPC    OF 4384   0.931   4.066   5.233
   21POPC   C1B 4385   0.970   3.889   5.067
   21POPC   C1C 4386   0.847   3.930   4.979
   21POPC   C1D 4387   0.891   4.043   4.884
   21POPC   C1E 4388   0.796   4.068   4.768
   21POPC   C1F 4389   0.825   4.198   4.691
   21POPC   C1G 4390   0.739   4.190   4.560
   21POPC   C1H 4391   0.789   4.298   4.461
   21POPC   C1I 4392   0.679   4.292   4.353
   21POPC   C1J 4393   0.698   4.268   4.225
   21POPC   C1K 4394   0.821   4.230   4.154
   21POPC   C1L 4395   0.826   4.244   3.997
   21POPC   C1M 4396   0.830   4.395   3.967
   21POPC   C1N 4397   0.861   4.435   3.821
   21POPC   C1O 4398   0.793   4.352   3.707
   21POPC   C1P 4399   0.811   4.404   3.572
   21POPC   C1Q 4400   0.950   4.377   3.511
   21POPC   C1R 4401   0.970   4.456   3.376
   21POPC    CE 4402   1.214   4.137   5.324
   21POPC    OG 4403   1.327   4.141   5.235
   21POPC   C2A 4404   1.309   4.183   5.113
   21POPC    OH 4405   1.206   4.234   5.069
   21POPC   C2B 4406   1.433   4.163   5.031
   21POPC   C2C 4407   1.393   4.138   4.883
   21POPC   C2D 4408   1.509   4.095   4.796
   21POPC   C2E 4409   1.476   4.073   4.641
   21POPC   C2F 4410   1.594   4.035   4.549
   21POPC   C2G 4411   1.549   4.018   4.398
   21POPC   C2H 4412   1.663   3.961   4.313
   21POPC   C2I 4413   1.613   3.946   4.165
   21POPC   C2J 4414   1.713   3.868   4.079
   21POPC   C2K 4415   1.641   3.841   3.948
   21POPC   C2L 4416   1.735   3.775   3.845
   21POPC   C2M 4417   1.660   3.698   3.737
   21POPC   C2N 4418   1.754   3.668   3.623
   21POPC   C2O 4419   1.688   3.585   3.513
   21POPC   C2P 4420   1.785   3.547   3.402
   22POPC   CN1 4421   0.342   5.498   5.753
   22POPC   CN2 4422   0.425   5.333   5.597
   22POPC   CN3 4423   0.392   5.284   5.844
   22POPC   NTM 4424   0.438   5.387   5.740
   22POPC    CA 4425   0.583   5.435   5.780
   22POPC    CB 4426   0.683   5.314   5.773
   22POPC    OA 4427   0.683   5.261   5.639
   22POPC     P 4428   0.790   5.157   5.597
   22POPC    OB 4429   0.708   5.038   5.589
   22POPC    OC 4430   0.905   5.160   5.688
   22POPC    OD 4431   0.829   5.204   5.452
   22POPC    CC 4432   0.825   5.335   5.403
   22POPC    CD 4433   0.693   5.374   5.338
   22POPC    OE 4434   0.684   5.306   5.215
   22POPC   C1A 4435   0.561   5.300   5.163
   22POPC    OF 4436   0.456   5.340   5.214
   22POPC   C1B 4437   0.574   5.217   5.037
   22POPC   C1C 4438   0.448   5.207   4.946
   22POPC   C1D 4439   0.436   5.336   4.864
   22POPC   C1E 4440   0.343   5.327   4.745
   22POPC   C1F 4441   0.311   5.464   4.680
   22POPC   C1G 4442   0.240   5.431   4.544
   22POPC   C1H 4443   0.238   5.559   4.457
   22POPC   C1I 4444   0.144   5.516   4.343
   22POPC   C1J 4445   0.175   5.516   4.215
   22POPC   C1K 4446   0.302   5.544   4.148
   22POPC   C1L 4447   0.303   5.574   3.993
   22POPC   C1M 4448   0.239   5.713   3.977
   22POPC   C1N 4449   0.251   5.777   3.836
   22POPC   C1O 4450   0.229   5.685   3.712
   22POPC   C1P 4451   0.224   5.752   3.583
   22POPC   C1Q 4452   0.362   5.796   3.528
   22POPC   C1R 4453   0.346   5.889   3.401
   22POPC    CE 4454   0.675   5.521   5.329
   22POPC    OG 4455   0.776   5.584   5.247
   22POPC   C2A 4456   0.742   5.625   5.128
   22POPC    OH 4457   0.628   5.629   5.082
   22POPC   C2B 4458   0.863   5.672   5.053
   22POPC   C2C 4459   0.842   5.646   4.900
   22POPC   C2D 4460   0.965   5.669   4.818
   22POPC   C2E 4461   0.949   5.650   4.660
   22POPC   C2F 4462   1.073   5.678   4.571
   22POPC   C2G 4463   1.043   5.658   4.418
   22POPC   C2H 4464   1.172   5.667   4.335
   22POPC   C2I 4465   1.137   5.646   4.184
   22POPC   C2J 4466   1.263   5.630   4.098
   22POPC   C2K 4467   1.213   5.587   3.961
   22POPC   C2L 4468   1.329   5.581   3.859
   22POPC   C2M 4469   1.298   5.489   3.741
   22POPC   C2N 4470   1.397   5.516   3.630
   22POPC   C2O 4471   1.378   5.423   3.510
   22POPC   C2P 4472   1.483   5.445   3.402
   23POPC   CN1 4473   1.316   2.583   5.765
   23POPC   CN2 4474   1.514   2.609   5.629
   23POPC   CN3 4475   1.521   2.606   5.882
   23POPC   NTM 4476   1.445   2.654   5.758
   23POPC    CA 4477   1.423   2.810   5.771
   23POPC    CB 4478   1.562   2.883   5.772
   23POPC    OA 4479   1.631   2.853   5.650
   23POPC     P 4480   1.760   2.931   5.613
   23POPC    OB 4481   1.860   2.829   5.634
   23POPC    OC 4482   1.768   3.057   5.687
   23POPC    OD 4483   1.742   2.955   5.458
   23POPC    CC 4484   1.620   2.967   5.389
   23POPC    CD 4485   1.565   2.837   5.335
   23POPC    OE 4486   1.646   2.796   5.228
   23POPC   C1A 4487   1.634   2.668   5.193
   23POPC    OF 4488   1.566   2.582   5.250
   23POPC   C1B 4489   1.735   2.646   5.082
   23POPC   C1C 4490   1.730   2.507   5.010
   23POPC   C1D 4491   1.614   2.507   4.909
   23POPC   C1E 4492   1.620   2.397   4.806
   23POPC   C1F 4493   1.490   2.381   4.725
   23POPC   C1G 4494   1.526   2.285   4.606
   23POPC   C1H 4495   1.414   2.293   4.500
   23POPC   C1I 4496   1.452   2.176   4.406
   23POPC   C1J 4497   1.476   2.186   4.278
   23POPC   C1K 4498   1.484   2.305   4.192
   23POPC   C1L 4499   1.476   2.287   4.035
   23POPC   C1M 4500   1.330   2.248   4.004
   23POPC   C1N 4501   1.290   2.250   3.855
   23POPC   C1O 4502   1.393   2.193   3.751
   23POPC   C1P 4503   1.344   2.180   3.614
   23POPC   C1Q 4504   1.337   2.313   3.536
   23POPC   C1R 4505   1.261   2.295   3.399
   23POPC    CE 4506   1.420   2.845   5.304
   23POPC    OG 4507   1.391   2.942   5.202
   23POPC   C2A 4508   1.361   2.898   5.082
   23POPC    OH 4509   1.340   2.781   5.051
   23POPC   C2B 4510   1.351   3.012   4.986
   23POPC   C2C 4511   1.392   2.964   4.844
   23POPC   C2D 4512   1.406   3.075   4.744
   23POPC   C2E 4513   1.443   3.031   4.595
   23POPC   C2F 4514   1.454   3.143   4.488
   23POPC   C2G 4515   1.488   3.087   4.345
   23POPC   C2H 4516   1.517   3.201   4.246
   23POPC   C2I 4517   1.551   3.140   4.106
   23POPC   C2J 4518   1.604   3.246   4.009
   23POPC   C2K 4519   1.654   3.168   3.888
   23POPC   C2L 4520   1.698   3.263   3.775
   23POPC   C2M 4521   1.797   3.198   3.678
   23POPC   C2N 4522   1.806   3.283   3.553
   23POPC   C2O 4523   1.909   3.228   3.454
   23POPC   C2P 4524   1.924   3.318   3.332
   24POPC   CN1 4525   0.110   4.535   5.704
   24POPC   CN2 4526   0.287   4.648   5.584
   24POPC   CN3 4527   0.287   4.622   5.836
   24POPC   NTM 4528   0.203   4.650   5.712
   24POPC    CA 4529   0.122   4.784   5.736
   24POPC    CB 4530   0.222   4.904   5.752
   24POPC    OA 4531   0.300   4.915   5.632
   24POPC     P 4532   0.390   5.040   5.610
   24POPC    OB 4533   0.521   4.981   5.629
   24POPC    OC 4534   0.347   5.150   5.694
   24POPC    OD 4535   0.369   5.070   5.457
   24POPC    CC 4536   0.254   5.042   5.381
   24POPC    CD 4537   0.254   4.906   5.314
   24POPC    OE 4538   0.348   4.910   5.208
   24POPC   C1A 4539   0.387   4.791   5.163
   24POPC    OF 4540   0.356   4.681   5.208
   24POPC   C1B 4541   0.492   4.820   5.057
   24POPC   C1C 4542   0.543   4.698   4.974
   24POPC   C1D 4543   0.438   4.664   4.866
   24POPC   C1E 4544   0.489   4.575   4.755
   24POPC   C1F 4545   0.378   4.519   4.664
   24POPC   C1G 4546   0.451   4.456   4.541
   24POPC   C1H 4547   0.348   4.431   4.429
   24POPC   C1I 4548   0.431   4.348   4.329
   24POPC   C1J 4549   0.452   4.379   4.203
   24POPC   C1K 4550   0.416   4.499   4.128
   24POPC   C1L 4551   0.420   4.496   3.970
   24POPC   C1M 4552   0.302   4.408   3.927
   24POPC   C1N 4553   0.268   4.409   3.776
   24POPC   C1O 4554   0.388   4.406   3.674
   24POPC   C1P 4555   0.351   4.389   3.534
   24POPC   C1Q 4556   0.296   4.517   3.467
   24POPC   C1R 4557   0.237   4.485   3.324
   24POPC    CE 4558   0.118   4.861   5.274
   24POPC    OG 4559   0.058   4.950   5.178
   24POPC   C2A 4560   0.049   4.910   5.054
   24POPC    OH 4561   0.076   4.797   5.012
   24POPC   C2B 4562  -0.001   5.021   4.967
   24POPC   C2C 4563   0.060   5.006   4.824
   24POPC   C2D 4564   0.033   5.123   4.734
   24POPC   C2E 4565   0.089   5.112   4.585
   24POPC   C2F 4566   0.058   5.229   4.489
   24POPC   C2G 4567   0.115   5.205   4.344
   24POPC   C2H 4568   0.101   5.331   4.257
   24POPC   C2I 4569   0.159   5.301   4.115
   24POPC   C2J 4570   0.171   5.429   4.030
   24POPC   C2K 4571   0.250   5.389   3.907
   24POPC   C2L 4572   0.257   5.504   3.805
   24POPC   C2M 4573   0.376   5.491   3.710
   24POPC   C2N 4574   0.356   5.585   3.593
   24POPC   C2O 4575   0.474   5.584   3.496
   24POPC   C2P 4576   0.457   5.685   3.383
   25POPC   CN1 4577   1.650   1.280   5.710
   25POPC   CN2 4578   1.623   1.487   5.589
   25POPC   CN3 4579   1.638   1.477   5.841
   25POPC   NTM 4580   1.583   1.411   5.715
   25POPC    CA 4581   1.427   1.392   5.733
   25POPC    CB 4582   1.358   1.532   5.746
   25POPC    OA 4583   1.384   1.608   5.627
   25POPC     P 4584   1.308   1.742   5.602
   25POPC    OB 4585   1.414   1.837   5.626
   25POPC    OC 4586   1.186   1.748   5.683
   25POPC    OD 4587   1.277   1.735   5.449
   25POPC    CC 4588   1.258   1.618   5.372
   25POPC    CD 4589   1.385   1.563   5.309
   25POPC    OE 4590   1.423   1.651   5.205
   25POPC   C1A 4591   1.549   1.637   5.164
   25POPC    OF 4592   1.636   1.564   5.213
   25POPC   C1B 4593   1.570   1.744   5.059
   25POPC   C1C 4594   1.705   1.742   4.981
   25POPC   C1D 4595   1.697   1.632   4.873
   25POPC   C1E 4596   1.804   1.642   4.766
   25POPC   C1F 4597   1.813   1.518   4.675
   25POPC   C1G 4598   1.904   1.559   4.555
   25POPC   C1H 4599   1.889   1.454   4.442
   25POPC   C1I 4600   2.002   1.496   4.346
   25POPC   C1J 4601   1.988   1.528   4.220
   25POPC   C1K 4602   1.866   1.544   4.140
   25POPC   C1L 4603   1.876   1.546   3.983
   25POPC   C1M 4604   1.910   1.403   3.941
   25POPC   C1N 4605   1.901   1.373   3.789
   25POPC   C1O 4606   1.956   1.480   3.690
   25POPC   C1P 4607   1.962   1.440   3.550
   25POPC   C1Q 4608   1.825   1.442   3.477
   25POPC   C1R 4609   1.835   1.375   3.335
   25POPC    CE 4610   1.372   1.421   5.269
   25POPC    OG 4611   1.270   1.401   5.169
   25POPC   C2A 4612   1.308   1.378   5.046
   25POPC    OH 4613   1.423   1.356   5.008
   25POPC   C2B 4614   1.189   1.377   4.955
   25POPC   C2C 4615   1.233   1.426   4.813
   25POPC   C2D 4616   1.118   1.450   4.720
   25POPC   C2E 4617   1.156   1.496   4.571
   25POPC   C2F 4618   1.040   1.516   4.471
   25POPC   C2G 4619   1.091   1.558   4.328
   25POPC   C2H 4620   0.974   1.597   4.236
   25POPC   C2I 4621   1.030   1.638   4.096
   25POPC   C2J 4622   0.922   1.701   4.008
   25POPC   C2K 4623   0.995   1.757   3.887
   25POPC   C2L 4624   0.897   1.810   3.782
   25POPC   C2M 4625   0.960   1.914   3.689
   25POPC   C2N 4626   0.871   1.933   3.568
   25POPC   C2O 4627   0.924   2.041   3.473
   25POPC   C2P 4628   0.829   2.066   3.356
   26POPC   CN1 4629   3.104   3.128   5.771
   26POPC   CN2 4630   3.293   3.060   5.636
   26POPC   CN3 4631   3.289   3.035   5.888
   26POPC   NTM 4632   3.252   3.123   5.768
   26POPC    CA 4633   3.311   3.268   5.794
   26POPC    CB 4634   3.467   3.260   5.800
   26POPC    OA 4635   3.516   3.209   5.675
   26POPC     P 4636   3.668   3.214   5.643
   26POPC    OB 4637   3.701   3.073   5.655
   26POPC    OC 4638   3.736   3.311   5.727
   26POPC    OD 4639   3.670   3.255   5.491
   26POPC    CC 4640   3.574   3.332   5.425
   26POPC    CD 4641   3.462   3.252   5.361
   26POPC    OE 4642   3.515   3.184   5.249
   26POPC   C1A 4643   3.441   3.083   5.205
   26POPC    OF 4644   3.337   3.039   5.255
   26POPC   C1B 4645   3.520   3.021   5.091
   26POPC   C1C 4646   3.448   2.909   5.008
   26POPC   C1D 4647   3.352   2.976   4.909
   26POPC   C1E 4648   3.304   2.886   4.797
   26POPC   C1F 4649   3.187   2.944   4.716
   26POPC   C1G 4650   3.173   2.853   4.589
   26POPC   C1H 4651   3.084   2.924   4.485
   26POPC   C1I 4652   3.061   2.812   4.382
   26POPC   C1J 4653   3.091   2.818   4.254
   26POPC   C1K 4654   3.160   2.922   4.179
   26POPC   C1L 4655   3.150   2.923   4.021
   26POPC   C1M 4656   3.006   2.965   3.988
   26POPC   C1N 4657   2.977   2.998   3.840
   26POPC   C1O 4658   3.040   2.905   3.731
   26POPC   C1P 4659   2.996   2.929   3.594
   26POPC   C1Q 4660   3.060   3.053   3.527
   26POPC   C1R 4661   2.990   3.086   3.389
   26POPC    CE 4662   3.341   3.334   5.332
   26POPC    OG 4663   3.369   3.440   5.238
   26POPC   C2A 4664   3.325   3.427   5.116
   26POPC    OH 4665   3.248   3.339   5.075
   26POPC   C2B 4666   3.377   3.537   5.029
   26POPC   C2C 4667   3.393   3.486   4.883
   26POPC   C2D 4668   3.465   3.581   4.792
   26POPC   C2E 4669   3.479   3.536   4.640
   26POPC   C2F 4670   3.549   3.635   4.543
   26POPC   C2G 4671   3.555   3.580   4.395
   26POPC   C2H 4672   3.640   3.671   4.306
   26POPC   C2I 4673   3.643   3.612   4.161
   26POPC   C2J 4674   3.746   3.683   4.072
   26POPC   C2K 4675   3.754   3.600   3.945
   26POPC   C2L 4676   3.843   3.668   3.840
   26POPC   C2M 4677   3.900   3.570   3.737
   26POPC   C2N 4678   3.954   3.647   3.619
   26POPC   C2O 4679   4.018   3.556   3.514
   26POPC   C2P 4680   4.081   3.635   3.400
   27POPC   CN1 4681   2.629   4.281   5.701
   27POPC   CN2 4682   2.635   4.074   5.576
   27POPC   CN3 4683   2.606   4.081   5.828
   27POPC   NTM 4684   2.677   4.141   5.706
   27POPC    CA 4685   2.833   4.139   5.734
   27POPC    CB 4686   2.882   3.991   5.748
   27POPC    OA 4687   2.853   3.921   5.626
   27POPC     P 4688   2.913   3.779   5.602
   27POPC    OB 4689   2.793   3.698   5.617
   27POPC    OC 4690   3.027   3.755   5.689
   27POPC    OD 4691   2.954   3.784   5.451
   27POPC    CC 4692   2.992   3.899   5.379
   27POPC    CD 4693   2.879   3.971   5.309
   27POPC    OE 4694   2.836   3.892   5.201
   27POPC   C1A 4695   2.716   3.923   5.153
   27POPC    OF 4696   2.636   4.006   5.198
   27POPC   C1B 4697   2.687   3.821   5.044
   27POPC   C1C 4698   2.559   3.843   4.958
   27POPC   C1D 4699   2.588   3.952   4.854
   27POPC   C1E 4700   2.488   3.958   4.740
   27POPC   C1F 4701   2.501   4.085   4.652
   27POPC   C1G 4702   2.413   4.058   4.526
   27POPC   C1H 4703   2.449   4.162   4.417
   27POPC   C1I 4704   2.338   4.138   4.313
   27POPC   C1J 4705   2.356   4.106   4.188
   27POPC   C1K 4706   2.479   4.074   4.115
   27POPC   C1L 4707   2.478   4.077   3.957
   27POPC   C1M 4708   2.467   4.225   3.917
   27POPC   C1N 4709   2.490   4.256   3.767
   27POPC   C1O 4710   2.427   4.158   3.661
   27POPC   C1P 4711   2.435   4.201   3.522
   27POPC   C1Q 4712   2.575   4.182   3.458
   27POPC   C1R 4713   2.583   4.252   3.317
   27POPC    CE 4714   2.913   4.111   5.274
   27POPC    OG 4715   3.023   4.119   5.181
   27POPC   C2A 4716   2.996   4.149   5.057
   27POPC    OH 4717   2.888   4.187   5.012
   27POPC   C2B 4718   3.120   4.135   4.972
   27POPC   C2C 4719   3.079   4.095   4.828
   27POPC   C2D 4720   3.195   4.057   4.740
   27POPC   C2E 4721   3.160   4.020   4.589
   27POPC   C2F 4722   3.279   3.986   4.495
   27POPC   C2G 4723   3.232   3.954   4.348
   27POPC   C2H 4724   3.348   3.901   4.263
   27POPC   C2I 4725   3.296   3.870   4.119
   27POPC   C2J 4726   3.401   3.795   4.035
   27POPC   C2K 4727   3.328   3.752   3.909
   27POPC   C2L 4728   3.425   3.688   3.808
   27POPC   C2M 4729   3.355   3.595   3.709
   27POPC   C2N 4730   3.448   3.566   3.594
   27POPC   C2O 4731   3.387   3.468   3.493
   27POPC   C2P 4732   3.485   3.432   3.382
   28POPC   CN1 4733   3.101   4.007   5.769
   28POPC   CN2 4734   3.266   3.901   5.628
   28POPC   CN3 4735   3.258   3.866   5.878
   28POPC   NTM 4736   3.243   3.966   5.763
   28POPC    CA 4737   3.336   4.091   5.794
   28POPC    CB 4738   3.486   4.044   5.796
   28POPC    OA 4739   3.519   3.988   5.668
   28POPC     P 4740   3.668   3.957   5.633
   28POPC    OB 4741   3.665   3.812   5.639
   28POPC    OC 4742   3.759   4.031   5.720
   28POPC    OD 4743   3.678   4.003   5.483
   28POPC    CC 4744   3.603   4.104   5.422
   28POPC    CD 4745   3.474   4.058   5.357
   28POPC    OE 4746   3.507   3.983   5.242
   28POPC   C1A 4747   3.410   3.906   5.194
   28POPC    OF 4748   3.299   3.886   5.245
   28POPC   C1B 4749   3.470   3.831   5.077
   28POPC   C1C 4750   3.373   3.745   4.991
   28POPC   C1D 4751   3.294   3.837   4.897
   28POPC   C1E 4752   3.225   3.766   4.782
   28POPC   C1F 4753   3.124   3.855   4.706
   28POPC   C1G 4754   3.087   3.776   4.576
   28POPC   C1H 4755   3.017   3.871   4.477
   28POPC   C1I 4756   2.967   3.773   4.370
   28POPC   C1J 4757   2.996   3.777   4.242
   28POPC   C1K 4758   3.088   3.864   4.169
   28POPC   C1L 4759   3.076   3.874   4.012
   28POPC   C1M 4760   2.946   3.952   3.984
   28POPC   C1N 4761   2.925   3.998   3.838
   28POPC   C1O 4762   2.962   3.897   3.724
   28POPC   C1P 4763   2.924   3.937   3.589
   28POPC   C1Q 4764   3.016   4.045   3.526
   28POPC   C1R 4765   2.955   4.100   3.391
   28POPC    CE 4766   3.377   4.168   5.334
   28POPC    OG 4767   3.429   4.268   5.244
   28POPC   C2A 4768   3.382   4.271   5.122
   28POPC    OH 4769   3.286   4.207   5.079
   28POPC   C2B 4770   3.459   4.369   5.039
   28POPC   C2C 4771   3.460   4.322   4.890
   28POPC   C2D 4772   3.552   4.400   4.802
   28POPC   C2E 4773   3.553   4.360   4.648
   28POPC   C2F 4774   3.644   4.443   4.553
   28POPC   C2G 4775   3.634   4.395   4.403
   28POPC   C2H 4776   3.739   4.465   4.315
   28POPC   C2I 4777   3.726   4.414   4.168
   28POPC   C2J 4778   3.842   4.462   4.081
   28POPC   C2K 4779   3.828   4.385   3.950
   28POPC   C2L 4780   3.930   4.434   3.846
   28POPC   C2M 4781   3.959   4.329   3.738
   28POPC   C2N 4782   4.030   4.395   3.622
   28POPC   C2O 4783   4.068   4.296   3.513
   28POPC   C2P 4784   4.147   4.362   3.400
   29POPC   CN1 4785   1.379   5.851   5.758
   29POPC   CN2 4786   1.319   6.043   5.623
   29POPC   CN3 4787   1.314   6.047   5.876
   29POPC   NTM 4788   1.285   5.965   5.750
   29POPC    CA 4789   1.136   5.914   5.758
   29POPC    CB 4790   1.038   6.036   5.757
   29POPC    OA 4791   1.058   6.111   5.636
   29POPC     P 4792   0.957   6.223   5.598
   29POPC    OB 4793   1.038   6.340   5.623
   29POPC    OC 4794   0.830   6.207   5.668
   29POPC    OD 4795   0.942   6.203   5.443
   29POPC    CC 4796   0.955   6.082   5.372
   29POPC    CD 4797   1.095   6.053   5.322
   29POPC    OE 4798   1.122   6.142   5.216
   29POPC   C1A 4799   1.251   6.155   5.186
   29POPC    OF 4800   1.347   6.104   5.245
   29POPC   C1B 4801   1.258   6.259   5.076
   29POPC   C1C 4802   1.396   6.282   5.009
   29POPC   C1D 4803   1.421   6.169   4.907
   29POPC   C1E 4804   1.532   6.197   4.808
   29POPC   C1F 4805   1.575   6.074   4.726
   29POPC   C1G 4806   1.665   6.128   4.610
   29POPC   C1H 4807   1.682   6.018   4.503
   29POPC   C1I 4808   1.792   6.079   4.414
   29POPC   C1J 4809   1.781   6.102   4.285
   29POPC   C1K 4810   1.666   6.088   4.195
   29POPC   C1L 4811   1.689   6.086   4.040
   29POPC   C1M 4812   1.756   5.951   4.009
   29POPC   C1N 4813   1.767   5.913   3.859
   29POPC   C1O 4814   1.806   6.026   3.758
   29POPC   C1P 4815   1.832   5.982   3.621
   29POPC   C1Q 4816   1.704   5.951   3.539
   29POPC   C1R 4817   1.741   5.881   3.402
   29POPC    CE 4818   1.116   5.910   5.290
   29POPC    OG 4819   1.029   5.865   5.184
   29POPC   C2A 4820   1.081   5.844   5.066
   29POPC    OH 4821   1.201   5.846   5.038
   29POPC   C2B 4822   0.973   5.814   4.966
   29POPC   C2C 4823   1.018   5.865   4.826
   29POPC   C2D 4824   0.909   5.860   4.723
   29POPC   C2E 4825   0.949   5.906   4.575
   29POPC   C2F 4826   0.840   5.897   4.465
   29POPC   C2G 4827   0.893   5.943   4.324
   29POPC   C2H 4828   0.779   5.951   4.222
   29POPC   C2I 4829   0.836   5.997   4.084
   29POPC   C2J 4830   0.725   6.031   3.984
   29POPC   C2K 4831   0.795   6.096   3.866
   29POPC   C2L 4832   0.697   6.122   3.751
   29POPC   C2M 4833   0.745   6.234   3.657
   29POPC   C2N 4834   0.664   6.228   3.529
   29POPC   C2O 4835   0.701   6.340   3.432
   29POPC   C2P 4836   0.613   6.339   3.307
   30POPC   CN1 4837   3.229   2.281   5.768
   30POPC   CN2 4838   3.275   2.469   5.624
   30POPC   CN3 4839   3.294   2.482   5.876
   30POPC   NTM 4840   3.214   2.427   5.758
   30POPC    CA 4841   3.063   2.469   5.777
   30POPC    CB 4842   3.050   2.625   5.774
   30POPC    OA 4843   3.098   2.673   5.647
   30POPC     P 4844   3.075   2.821   5.606
   30POPC    OB 4845   3.209   2.873   5.619
   30POPC    OC 4846   2.967   2.881   5.685
   30POPC    OD 4847   3.038   2.809   5.454
   30POPC    CC 4848   2.975   2.700   5.392
   30POPC    CD 4849   3.070   2.596   5.336
   30POPC    OE 4850   3.134   2.651   5.223
   30POPC   C1A 4851   3.244   2.588   5.184
   30POPC    OF 4852   3.300   2.493   5.241
   30POPC   C1B 4853   3.299   2.668   5.068
   30POPC   C1C 4854   3.420   2.607   4.991
   30POPC   C1D 4855   3.369   2.497   4.897
   30POPC   C1E 4856   3.468   2.455   4.789
   30POPC   C1F 4857   3.427   2.327   4.714
   30POPC   C1G 4858   3.523   2.318   4.590
   30POPC   C1H 4859   3.466   2.214   4.490
   30POPC   C1I 4860   3.583   2.201   4.391
   30POPC   C1J 4861   3.576   2.222   4.262
   30POPC   C1K 4862   3.466   2.273   4.180
   30POPC   C1L 4863   3.470   2.253   4.023
   30POPC   C1M 4864   3.448   2.103   3.998
   30POPC   C1N 4865   3.422   2.062   3.852
   30POPC   C1O 4866   3.509   2.131   3.740
   30POPC   C1P 4867   3.495   2.076   3.606
   30POPC   C1Q 4868   3.365   2.120   3.533
   30POPC   C1R 4869   3.345   2.039   3.399
   30POPC    CE 4870   3.004   2.464   5.313
   30POPC    OG 4871   2.899   2.473   5.215
   30POPC   C2A 4872   2.920   2.424   5.096
   30POPC    OH 4873   3.018   2.357   5.062
   30POPC   C2B 4874   2.806   2.457   5.005
   30POPC   C2C 4875   2.859   2.470   4.859
   30POPC   C2D 4876   2.758   2.524   4.762
   30POPC   C2E 4877   2.805   2.536   4.610
   30POPC   C2F 4878   2.701   2.586   4.507
   30POPC   C2G 4879   2.757   2.591   4.361
   30POPC   C2H 4880   2.659   2.659   4.265
   30POPC   C2I 4881   2.721   2.661   4.121
   30POPC   C2J 4882   2.639   2.749   4.025
   30POPC   C2K 4883   2.724   2.760   3.899
   30POPC   C2L 4884   2.647   2.834   3.788
   30POPC   C2M 4885   2.741   2.896   3.684
   30POPC   C2N 4886   2.660   2.934   3.561
   30POPC   C2O 4887   2.745   3.003   3.455
   30POPC   C2P 4888   2.662   3.049   3.335
   31POPC   CN1 4889   5.014   0.049   5.678
   31POPC   CN2 4890   4.887   0.234   5.588
   31POPC   CN3 4891   4.897   0.183   5.836
   31POPC   NTM 4892   4.888   0.125   5.695
   31POPC    CA 4893   4.764   0.027   5.690
   31POPC    CB 4894   4.632   0.108   5.715
   31POPC    OA 4895   4.619   0.208   5.614
   31POPC     P 4896   4.485   0.287   5.600
   31POPC    OB 4897   4.527   0.417   5.651
   31POPC    OC 4898   4.376   0.216   5.664
   31POPC    OD 4899   4.468   0.296   5.444
   31POPC    CC 4900   4.514   0.204   5.349
   31POPC    CD 4901   4.653   0.233   5.295
   31POPC    OE 4902   4.644   0.347   5.212
   31POPC   C1A 4903   4.760   0.407   5.185
   31POPC    OF 4904   4.871   0.379   5.233
   31POPC   C1B 4905   4.725   0.528   5.102
   31POPC   C1C 4906   4.845   0.609   5.042
   31POPC   C1D 4907   4.898   0.534   4.918
   31POPC   C1E 4908   4.987   0.617   4.828
   31POPC   C1F 4909   5.062   0.534   4.722
   31POPC   C1G 4910   5.123   0.638   4.622
   31POPC   C1H 4911   5.168   0.564   4.493
   31POPC   C1I 4912   5.246   0.675   4.420
   31POPC   C1J 4913   5.220   0.720   4.300
   31POPC   C1K 4914   5.110   0.689   4.208
   31POPC   C1L 4915   5.123   0.726   4.056
   31POPC   C1M 4916   5.228   0.630   3.997
   31POPC   C1N 4917   5.240   0.630   3.843
   31POPC   C1O 4918   5.235   0.768   3.769
   31POPC   C1P 4919   5.265   0.765   3.626
   31POPC   C1Q 4920   5.149   0.712   3.538
   31POPC   C1R 4921   5.197   0.688   3.389
   31POPC    CE 4922   4.717   0.115   5.233
   31POPC    OG 4923   4.642   0.067   5.119
   31POPC   C2A 4924   4.691   0.090   4.999
   31POPC    OH 4925   4.801   0.137   4.973
   31POPC   C2B 4926   4.592   0.048   4.894
   31POPC   C2C 4927   4.609   0.139   4.769
   31POPC   C2D 4928   4.501   0.120   4.666
   31POPC   C2E 4929   4.515   0.207   4.533
   31POPC   C2F 4930   4.408   0.186   4.422
   31POPC   C2G 4931   4.434   0.275   4.295
   31POPC   C2H 4932   4.317   0.267   4.196
   31POPC   C2I 4933   4.348   0.357   4.073
   31POPC   C2J 4934   4.226   0.373   3.982
   31POPC   C2K 4935   4.264   0.481   3.881
   31POPC   C2L 4936   4.155   0.497   3.773
   31POPC   C2M 4937   4.159   0.634   3.706
   31POPC   C2N 4938   4.076   0.630   3.580
   31POPC   C2O 4939   4.069   0.765   3.510
   31POPC   C2P 4940   3.978   0.762   3.387
   32POPC   CN1 4941   6.240   2.493   5.672
   32POPC   CN2 4942   6.054   2.365   5.587
   32POPC   CN3 4943   6.111   2.375   5.833
   32POPC   NTM 4944   6.166   2.367   5.690
   32POPC    CA 4945   6.265   2.243   5.683
   32POPC    CB 4946   6.186   2.111   5.711
   32POPC    OA 4947   6.082   2.097   5.612
   32POPC     P 4948   6.004   1.963   5.600
   32POPC    OB 4949   5.876   2.003   5.654
   32POPC    OC 4950   6.078   1.854   5.662
   32POPC    OD 4951   5.991   1.945   5.444
   32POPC    CC 4952   6.081   1.992   5.347
   32POPC    CD 4953   6.049   2.131   5.294
   32POPC    OE 4954   5.934   2.121   5.213
   32POPC   C1A 4955   5.872   2.236   5.188
   32POPC    OF 4956   5.900   2.347   5.235
   32POPC   C1B 4957   5.749   2.201   5.108
   32POPC   C1C 4958   5.666   2.319   5.050
   32POPC   C1D 4959   5.737   2.373   4.925
   32POPC   C1E 4960   5.651   2.461   4.837
   32POPC   C1F 4961   5.731   2.537   4.728
   32POPC   C1G 4962   5.624   2.597   4.631
   32POPC   C1H 4963   5.693   2.642   4.500
   32POPC   C1I 4964   5.580   2.720   4.430
   32POPC   C1J 4965   5.532   2.694   4.311
   32POPC   C1K 4966   5.563   2.584   4.219
   32POPC   C1L 4967   5.521   2.597   4.067
   32POPC   C1M 4968   5.614   2.702   4.006
   32POPC   C1N 4969   5.610   2.714   3.852
   32POPC   C1O 4970   5.471   2.708   3.781
   32POPC   C1P 4971   5.470   2.738   3.639
   32POPC   C1Q 4972   5.522   2.622   3.549
   32POPC   C1R 4973   5.541   2.670   3.400
   32POPC    CE 4974   6.166   2.195   5.228
   32POPC    OG 4975   6.211   2.121   5.113
   32POPC   C2A 4976   6.185   2.170   4.994
   32POPC    OH 4977   6.136   2.280   4.970
   32POPC   C2B 4978   6.225   2.071   4.888
   32POPC   C2C 4979   6.130   2.087   4.765
   32POPC   C2D 4980   6.147   1.979   4.662
   32POPC   C2E 4981   6.057   1.993   4.531
   32POPC   C2F 4982   6.076   1.886   4.420
   32POPC   C2G 4983   5.984   1.911   4.295
   32POPC   C2H 4984   5.990   1.794   4.196
   32POPC   C2I 4985   5.897   1.824   4.075
   32POPC   C2J 4986   5.880   1.702   3.984
   32POPC   C2K 4987   5.769   1.739   3.887
   32POPC   C2L 4988   5.751   1.630   3.779
   32POPC   C2M 4989   5.612   1.633   3.716
   32POPC   C2N 4990   5.614   1.550   3.589
   32POPC   C2O 4991   5.477   1.541   3.523
   32POPC   C2P 4992   5.477   1.451   3.400
   33POPC   CN1 4993   2.709   0.116   5.731
   33POPC   CN2 4994   2.813   0.285   5.593
   33POPC   CN3 4995   2.851   0.269   5.843
   33POPC   NTM 4996   2.749   0.258   5.729
   33POPC    CA 4997   2.625   0.350   5.764
   33POPC    CB 4998   2.671   0.500   5.770
   33POPC    OA 4999   2.726   0.537   5.642
   33POPC     P 5000   2.757   0.686   5.612
   33POPC    OB 5001   2.902   0.684   5.616
   33POPC    OC 5002   2.684   0.774   5.702
   33POPC    OD 5003   2.709   0.701   5.463
   33POPC    CC 5004   2.607   0.628   5.400
   33POPC    CD 5005   2.653   0.501   5.331
   33POPC    OE 5006   2.726   0.538   5.216
   33POPC   C1A 5007   2.803   0.442   5.165
   33POPC    OF 5008   2.823   0.330   5.212
   33POPC   C1B 5009   2.876   0.506   5.049
   33POPC   C1C 5010   2.962   0.412   4.959
   33POPC   C1D 5011   2.868   0.336   4.863
   33POPC   C1E 5012   2.938   0.270   4.746
   33POPC   C1F 5013   2.848   0.172   4.667
   33POPC   C1G 5014   2.926   0.139   4.536
   33POPC   C1H 5015   2.829   0.072   4.435
   33POPC   C1I 5016   2.927   0.025   4.326
   33POPC   C1J 5017   2.921   0.058   4.199
   33POPC   C1K 5018   2.833   0.152   4.130
   33POPC   C1L 5019   2.821   0.145   3.973
   33POPC   C1M 5020   2.743   0.017   3.941
   33POPC   C1N 5021   2.695  -0.000   3.795
   33POPC   C1O 5022   2.795   0.040   3.681
   33POPC   C1P 5023   2.753   0.006   3.546
   33POPC   C1Q 5024   2.645   0.100   3.487
   33POPC   C1R 5025   2.588   0.043   3.351
   33POPC    CE 5026   2.543   0.405   5.307
   33POPC    OG 5027   2.442   0.460   5.219
   33POPC   C2A 5028   2.437   0.416   5.096
   33POPC    OH 5029   2.501   0.321   5.050
   33POPC   C2B 5030   2.338   0.496   5.016
   33POPC   C2C 5031   2.384   0.501   4.868
   33POPC   C2D 5032   2.304   0.596   4.783
   33POPC   C2E 5033   2.343   0.602   4.628
   33POPC   C2F 5034   2.259   0.696   4.537
   33POPC   C2G 5035   2.305   0.691   4.387
   33POPC   C2H 5036   2.234   0.798   4.304
   33POPC   C2I 5037   2.283   0.789   4.156
   33POPC   C2J 5038   2.235   0.909   4.072
   33POPC   C2K 5039   2.309   0.899   3.940
   33POPC   C2L 5040   2.260   1.004   3.840
   33POPC   C2M 5041   2.363   1.036   3.732
   33POPC   C2N 5042   2.295   1.110   3.619
   33POPC   C2O 5043   2.394   1.153   3.509
   33POPC   C2P 5044   2.326   1.235   3.400
   34POPC   CN1 5045   1.172   1.271   5.745
   34POPC   CN2 5046   1.059   1.444   5.620
   34POPC   CN3 5047   1.054   1.432   5.873
   34POPC   NTM 5048   1.050   1.353   5.742
   34POPC    CA 5049   0.922   1.260   5.745
   34POPC    CB 5050   0.792   1.349   5.750
   34POPC    OA 5051   0.789   1.433   5.634
   34POPC     P 5052   0.660   1.513   5.600
   34POPC    OB 5053   0.704   1.647   5.633
   34POPC    OC 5054   0.544   1.457   5.668
   34POPC    OD 5055   0.651   1.499   5.444
   34POPC    CC 5056   0.698   1.391   5.367
   34POPC    CD 5057   0.840   1.407   5.317
   34POPC    OE 5058   0.841   1.506   5.217
   34POPC   C1A 5059   0.961   1.557   5.189
   34POPC    OF 5060   1.068   1.533   5.246
   34POPC   C1B 5061   0.936   1.665   5.086
   34POPC   C1C 5062   1.062   1.731   5.021
   34POPC   C1D 5063   1.118   1.636   4.914
   34POPC   C1E 5064   1.215   1.701   4.818
   34POPC   C1F 5065   1.292   1.600   4.729
   34POPC   C1G 5066   1.363   1.685   4.619
   34POPC   C1H 5067   1.411   1.591   4.506
   34POPC   C1I 5068   1.497   1.686   4.421
   34POPC   C1J 5069   1.481   1.713   4.294
   34POPC   C1K 5070   1.374   1.671   4.202
   34POPC   C1L 5071   1.397   1.685   4.047
   34POPC   C1M 5072   1.500   1.577   4.009
   34POPC   C1N 5073   1.520   1.552   3.858
   34POPC   C1O 5074   1.525   1.677   3.764
   34POPC   C1P 5075   1.562   1.651   3.625
   34POPC   C1Q 5076   1.449   1.589   3.540
   34POPC   C1R 5077   1.503   1.541   3.399
   34POPC    CE 5078   0.902   1.278   5.278
   34POPC    OG 5079   0.832   1.215   5.168
   34POPC   C2A 5080   0.887   1.218   5.050
   34POPC    OH 5081   1.002   1.256   5.023
   34POPC   C2B 5082   0.793   1.164   4.947
   34POPC   C2C 5083   0.820   1.234   4.810
   34POPC   C2D 5084   0.717   1.203   4.705
   34POPC   C2E 5085   0.742   1.268   4.561
   34POPC   C2F 5086   0.640   1.234   4.449
   34POPC   C2G 5087   0.677   1.301   4.312
   34POPC   C2H 5088   0.565   1.281   4.209
   34POPC   C2I 5089   0.606   1.350   4.075
   34POPC   C2J 5090   0.489   1.356   3.975
   34POPC   C2K 5091   0.537   1.446   3.862
   34POPC   C2L 5092   0.435   1.449   3.747
   34POPC   C2M 5093   0.449   1.574   3.660
   34POPC   C2N 5094   0.372   1.553   3.531
   34POPC   C2O 5095   0.375   1.676   3.441
   34POPC   C2P 5096   0.291   1.657   3.315
   35POPC   CN1 5097   3.433   1.273   5.708
   35POPC   CN2 5098   3.462   1.075   5.574
   35POPC   CN3 5099   3.420   1.066   5.823
   35POPC   NTM 5100   3.492   1.138   5.709
   35POPC    CA 5101   3.646   1.146   5.746
   35POPC    CB 5102   3.705   1.001   5.755
   35POPC    OA 5103   3.688   0.937   5.628
   35POPC     P 5104   3.760   0.801   5.600
   35POPC    OB 5105   3.647   0.711   5.603
   35POPC    OC 5106   3.872   0.781   5.692
   35POPC    OD 5107   3.809   0.818   5.451
   35POPC    CC 5108   3.842   0.939   5.388
   35POPC    CD 5109   3.727   1.007   5.316
   35POPC    OE 5110   3.695   0.930   5.202
   35POPC   C1A 5111   3.576   0.955   5.148
   35POPC    OF 5112   3.488   1.029   5.193
   35POPC   C1B 5113   3.562   0.858   5.033
   35POPC   C1C 5114   3.437   0.875   4.941
   35POPC   C1D 5115   3.462   0.992   4.844
   35POPC   C1E 5116   3.369   0.997   4.726
   35POPC   C1F 5117   3.376   1.129   4.646
   35POPC   C1G 5118   3.297   1.103   4.513
   35POPC   C1H 5119   3.331   1.215   4.412
   35POPC   C1I 5120   3.227   1.188   4.301
   35POPC   C1J 5121   3.254   1.165   4.175
   35POPC   C1K 5122   3.383   1.147   4.108
   35POPC   C1L 5123   3.391   1.159   3.951
   35POPC   C1M 5124   3.369   1.307   3.917
   35POPC   C1N 5125   3.397   1.348   3.771
   35POPC   C1O 5126   3.348   1.253   3.657
   35POPC   C1P 5127   3.361   1.304   3.522
   35POPC   C1Q 5128   3.505   1.299   3.464
   35POPC   C1R 5129   3.514   1.378   3.328
   35POPC    CE 5130   3.751   1.151   5.290
   35POPC    OG 5131   3.865   1.171   5.204
   35POPC   C2A 5132   3.843   1.207   5.080
   35POPC    OH 5133   3.734   1.239   5.032
   35POPC   C2B 5134   3.971   1.207   5.002
   35POPC   C2C 5135   3.941   1.172   4.853
   35POPC   C2D 5136   4.064   1.149   4.771
   35POPC   C2E 5137   4.041   1.117   4.616
   35POPC   C2F 5138   4.166   1.098   4.527
   35POPC   C2G 5139   4.130   1.071   4.377
   35POPC   C2H 5140   4.254   1.032   4.295
   35POPC   C2I 5141   4.213   1.006   4.147
   35POPC   C2J 5142   4.327   0.944   4.066
   35POPC   C2K 5143   4.265   0.902   3.934
   35POPC   C2L 5144   4.372   0.851   3.835
   35POPC   C2M 5145   4.313   0.759   3.727
   35POPC   C2N 5146   4.415   0.744   3.616
   35POPC   C2O 5147   4.367   0.648   3.507
   35POPC   C2P 5148   4.473   0.626   3.400
   36POPC   CN1 5149   5.686   0.620   5.765
   36POPC   CN2 5150   5.874   0.604   5.615
   36POPC   CN3 5151   5.896   0.574   5.865
   36POPC   NTM 5152   5.829   0.652   5.752
   36POPC    CA 5153   5.853   0.807   5.779
   36POPC    CB 5154   6.006   0.838   5.773
   36POPC    OA 5155   6.055   0.803   5.643
   36POPC     P 5156   6.199   0.846   5.600
   36POPC    OB 5157   6.266   0.719   5.604
   36POPC    OC 5158   6.247   0.957   5.683
   36POPC    OD 5159   6.178   0.890   5.450
   36POPC    CC 5160   6.060   0.942   5.394
   36POPC    CD 5161   5.967   0.837   5.335
   36POPC    OE 5162   6.026   0.787   5.218
   36POPC   C1A 5163   5.975   0.671   5.175
   36POPC    OF 5164   5.890   0.601   5.231
   36POPC   C1B 5165   6.058   0.633   5.054
   36POPC   C1C 5166   6.010   0.509   4.972
   36POPC   C1D 5167   5.892   0.551   4.883
   36POPC   C1E 5168   5.860   0.454   4.771
   36POPC   C1F 5169   5.725   0.482   4.701
   36POPC   C1G 5170   5.724   0.393   4.573
   36POPC   C1H 5171   5.612   0.442   4.478
   36POPC   C1I 5172   5.610   0.329   4.373
   36POPC   C1J 5173   5.627   0.345   4.244
   36POPC   C1K 5174   5.661   0.465   4.167
   36POPC   C1L 5175   5.638   0.466   4.011
   36POPC   C1M 5176   5.486   0.471   3.990
   36POPC   C1N 5177   5.438   0.499   3.846
   36POPC   C1O 5178   5.513   0.427   3.729
   36POPC   C1P 5179   5.453   0.441   3.597
   36POPC   C1Q 5180   5.479   0.579   3.530
   36POPC   C1R 5181   5.392   0.596   3.400
   36POPC    CE 5182   5.828   0.887   5.319
   36POPC    OG 5183   5.821   0.998   5.227
   36POPC   C2A 5184   5.771   0.977   5.108
   36POPC    OH 5185   5.716   0.874   5.069
   36POPC   C2B 5186   5.787   1.099   5.022
   36POPC   C2C 5187   5.803   1.055   4.873
   36POPC   C2D 5188   5.842   1.167   4.781
   36POPC   C2E 5189   5.855   1.130   4.626
   36POPC   C2F 5190   5.889   1.245   4.528
   36POPC   C2G 5191   5.896   1.196   4.379
   36POPC   C2H 5192   5.949   1.307   4.287
   36POPC   C2I 5193   5.955   1.253   4.140
   36POPC   C2J 5194   6.030   1.350   4.047
   36POPC   C2K 5195   6.048   1.274   3.916
   36POPC   C2L 5196   6.108   1.364   3.807
   36POPC   C2M 5197   6.179   1.285   3.697
   36POPC   C2N 5198   6.202   1.375   3.579
   36POPC   C2O 5199   6.279   1.305   3.466
   36POPC   C2P 5200   6.310   1.399   3.350
   37POPC   CN1 5201   5.165   1.927   5.734
   37POPC   CN2 5202   5.040   2.096   5.616
   37POPC   CN3 5203   5.036   2.074   5.868
   37POPC   NTM 5204   5.037   2.000   5.734
   37POPC    CA 5205   4.916   1.898   5.734
   37POPC    CB 5206   4.781   1.977   5.743
   37POPC    OA 5207   4.771   2.066   5.630
   37POPC     P 5208   4.637   2.138   5.600
   37POPC    OB 5209   4.671   2.273   5.638
   37POPC    OC 5210   4.525   2.071   5.665
   37POPC    OD 5211   4.627   2.129   5.443
   37POPC    CC 5212   4.682   2.028   5.362
   37POPC    CD 5213   4.823   2.056   5.313
   37POPC    OE 5214   4.815   2.159   5.216
   37POPC   C1A 5215   4.931   2.219   5.190
   37POPC    OF 5216   5.040   2.200   5.246
   37POPC   C1B 5217   4.899   2.329   5.091
   37POPC   C1C 5218   5.019   2.406   5.029
   37POPC   C1D 5219   5.081   2.320   4.918
   37POPC   C1E 5220   5.173   2.395   4.824
   37POPC   C1F 5221   5.257   2.304   4.732
   37POPC   C1G 5222   5.320   2.398   4.624
   37POPC   C1H 5223   5.374   2.312   4.508
   37POPC   C1I 5224   5.454   2.416   4.427
   37POPC   C1J 5225   5.434   2.446   4.301
   37POPC   C1K 5226   5.330   2.401   4.208
   37POPC   C1L 5227   5.351   2.422   4.053
   37POPC   C1M 5228   5.461   2.324   4.011
   37POPC   C1N 5229   5.483   2.307   3.859
   37POPC   C1O 5230   5.478   2.435   3.770
   37POPC   C1P 5231   5.516   2.417   3.630
   37POPC   C1Q 5232   5.407   2.351   3.542
   37POPC   C1R 5233   5.464   2.313   3.400
   37POPC    CE 5234   4.893   1.933   5.268
   37POPC    OG 5235   4.827   1.870   5.156
   37POPC   C2A 5236   4.881   1.882   5.037
   37POPC    OH 5237   4.992   1.929   5.013
   37POPC   C2B 5238   4.790   1.825   4.933
   37POPC   C2C 5239   4.811   1.902   4.799
   37POPC   C2D 5240   4.710   1.868   4.693
   37POPC   C2E 5241   4.730   1.940   4.552
   37POPC   C2F 5242   4.630   1.904   4.439
   37POPC   C2G 5243   4.661   1.979   4.304
   37POPC   C2H 5244   4.550   1.956   4.201
   37POPC   C2I 5245   4.586   2.033   4.069
   37POPC   C2J 5246   4.469   2.034   3.970
   37POPC   C2K 5247   4.510   2.131   3.861
   37POPC   C2L 5248   4.407   2.132   3.746
   37POPC   C2M 5249   4.411   2.261   3.664
   37POPC   C2N 5250   4.336   2.240   3.535
   37POPC   C2O 5251   4.329   2.366   3.449
   37POPC   C2P 5252   4.246   2.347   3.323
   38POPC   CN1 5253   5.126   6.045   5.756
   38POPC   CN2 5254   4.974   6.157   5.607
   38POPC   CN3 5255   4.976   6.200   5.856
   38POPC   NTM 5256   4.988   6.095   5.745
   38POPC    CA 5257   4.885   5.978   5.776
   38POPC    CB 5258   4.739   6.035   5.772
   38POPC    OA 5259   4.714   6.088   5.641
   38POPC     P 5260   4.569   6.129   5.601
   38POPC    OB 5261   4.581   6.273   5.602
   38POPC    OC 5262   4.471   6.063   5.687
   38POPC    OD 5263   4.560   6.078   5.452
   38POPC    CC 5264   4.630   5.970   5.396
   38POPC    CD 5265   4.764   6.006   5.334
   38POPC    OE 5266   4.739   6.078   5.216
   38POPC   C1A 5267   4.843   6.147   5.169
   38POPC    OF 5268   4.953   6.161   5.223
   38POPC   C1B 5269   4.792   6.222   5.048
   38POPC   C1C 5270   4.897   6.299   4.963
   38POPC   C1D 5271   4.972   6.198   4.874
   38POPC   C1E 5272   5.050   6.260   4.760
   38POPC   C1F 5273   5.146   6.162   4.689
   38POPC   C1G 5274   5.193   6.234   4.558
   38POPC   C1H 5275   5.259   6.131   4.464
   38POPC   C1I 5276   5.319   6.222   4.356
   38POPC   C1J 5277   5.294   6.216   4.228
   38POPC   C1K 5278   5.199   6.133   4.154
   38POPC   C1L 5279   5.214   6.116   3.998
   38POPC   C1M 5280   5.339   6.029   3.977
   38POPC   C1N 5281   5.362   5.977   3.833
   38POPC   C1O 5282   5.335   6.076   3.715
   38POPC   C1P 5283   5.375   6.029   3.582
   38POPC   C1Q 5284   5.278   5.926   3.520
   38POPC   C1R 5285   5.339   5.863   3.389
   38POPC    CE 5286   4.853   5.888   5.318
   38POPC    OG 5287   4.797   5.790   5.229
   38POPC   C2A 5288   4.848   5.779   5.109
   38POPC    OH 5289   4.950   5.835   5.068
   38POPC   C2B 5290   4.767   5.683   5.027
   38POPC   C2C 5291   4.774   5.726   4.877
   38POPC   C2D 5292   4.679   5.651   4.788
   38POPC   C2E 5293   4.686   5.686   4.633
   38POPC   C2F 5294   4.593   5.607   4.538
   38POPC   C2G 5295   4.610   5.648   4.387
   38POPC   C2H 5296   4.504   5.582   4.298
   38POPC   C2I 5297   4.525   5.628   4.150
   38POPC   C2J 5298   4.408   5.585   4.060
   38POPC   C2K 5299   4.431   5.656   3.928
   38POPC   C2L 5300   4.330   5.611   3.822
   38POPC   C2M 5301   4.311   5.714   3.710
   38POPC   C2N 5302   4.240   5.648   3.594
   38POPC   C2O 5303   4.211   5.746   3.480
   38POPC   C2P 5304   4.132   5.682   3.367
   39POPC   CN1 5305   4.206   0.124   5.718
   39POPC   CN2 5306   4.111   0.313   5.602
   39POPC   CN3 5307   4.113   0.296   5.854
   39POPC   NTM 5308   4.095   0.221   5.722
   39POPC    CA 5309   3.956   0.145   5.728
   39POPC    CB 5310   3.839   0.248   5.739
   39POPC    OA 5311   3.842   0.335   5.625
   39POPC     P 5312   3.723   0.432   5.598
   39POPC    OB 5313   3.785   0.558   5.633
   39POPC    OC 5314   3.603   0.388   5.669
   39POPC    OD 5315   3.707   0.422   5.442
   39POPC    CC 5316   3.738   0.312   5.361
   39POPC    CD 5317   3.879   0.311   5.306
   39POPC    OE 5318   3.888   0.412   5.209
   39POPC   C1A 5319   4.012   0.448   5.177
   39POPC    OF 5320   4.117   0.410   5.230
   39POPC   C1B 5321   3.998   0.561   5.077
   39POPC   C1C 5322   4.128   0.613   5.009
   39POPC   C1D 5323   4.169   0.515   4.898
   39POPC   C1E 5324   4.270   0.569   4.799
   39POPC   C1F 5325   4.330   0.462   4.706
   39POPC   C1G 5326   4.407   0.540   4.595
   39POPC   C1H 5327   4.439   0.444   4.478
   39POPC   C1I 5328   4.534   0.530   4.392
   39POPC   C1J 5329   4.516   0.562   4.266
   39POPC   C1K 5330   4.402   0.536   4.178
   39POPC   C1L 5331   4.420   0.550   4.022
   39POPC   C1M 5332   4.508   0.432   3.978
   39POPC   C1N 5333   4.520   0.409   3.826
   39POPC   C1O 5334   4.537   0.535   3.734
   39POPC   C1P 5335   4.565   0.507   3.594
   39POPC   C1Q 5336   4.442   0.462   3.511
   39POPC   C1R 5337   4.485   0.412   3.368
   39POPC    CE 5338   3.923   0.176   5.262
   39POPC    OG 5339   3.842   0.126   5.154
   39POPC   C2A 5340   3.893   0.125   5.034
   39POPC    OH 5341   4.010   0.149   5.004
   39POPC   C2B 5342   3.789   0.085   4.933
   39POPC   C2C 5343   3.819   0.155   4.797
   39POPC   C2D 5344   3.710   0.140   4.695
   39POPC   C2E 5345   3.737   0.204   4.552
   39POPC   C2F 5346   3.628   0.186   4.444
   39POPC   C2G 5347   3.668   0.251   4.306
   39POPC   C2H 5348   3.551   0.249   4.207
   39POPC   C2I 5349   3.596   0.315   4.073
   39POPC   C2J 5350   3.477   0.338   3.978
   39POPC   C2K 5351   3.532   0.424   3.865
   39POPC   C2L 5352   3.427   0.442   3.754
   39POPC   C2M 5353   3.453   0.567   3.669
   39POPC   C2N 5354   3.370   0.559   3.543
   39POPC   C2O 5355   3.385   0.683   3.455
   39POPC   C2P 5356   3.295   0.678   3.332
   40POPC   CN1 5357   1.278   1.909   5.758
   40POPC   CN2 5358   1.290   2.113   5.631
   40POPC   CN3 5359   1.286   2.110   5.884
   40POPC   NTM 5360   1.230   2.048   5.755
   40POPC    CA 5361   1.072   2.053   5.764
   40POPC    CB 5362   1.024   2.202   5.768
   40POPC    OA 5363   1.069   2.269   5.650
   40POPC     P 5364   1.014   2.411   5.616
   40POPC    OB 5365   1.132   2.491   5.644
   40POPC    OC 5366   0.890   2.437   5.688
   40POPC    OD 5367   0.993   2.403   5.461
   40POPC    CC 5368   0.962   2.288   5.386
   40POPC    CD 5369   1.083   2.213   5.333
   40POPC    OE 5370   1.140   2.290   5.230
   40POPC   C1A 5371   1.265   2.257   5.198
   40POPC    OF 5372   1.337   2.174   5.254
   40POPC   C1B 5373   1.308   2.356   5.092
   40POPC   C1C 5374   1.446   2.332   5.023
   40POPC   C1D 5375   1.429   2.221   4.918
   40POPC   C1E 5376   1.543   2.212   4.818
   40POPC   C1F 5377   1.539   2.084   4.732
   40POPC   C1G 5378   1.643   2.107   4.617
   40POPC   C1H 5379   1.620   2.002   4.506
   40POPC   C1I 5380   1.744   2.023   4.417
   40POPC   C1J 5381   1.742   2.053   4.290
   40POPC   C1K 5382   1.630   2.084   4.201
   40POPC   C1L 5383   1.651   2.079   4.045
   40POPC   C1M 5384   1.666   1.930   4.009
   40POPC   C1N 5385   1.662   1.896   3.858
   40POPC   C1O 5386   1.738   1.991   3.760
   40POPC   C1P 5387   1.747   1.946   3.622
   40POPC   C1Q 5388   1.617   1.964   3.540
   40POPC   C1R 5389   1.626   1.892   3.400
   40POPC    CE 5390   1.052   2.072   5.296
   40POPC    OG 5391   0.955   2.064   5.190
   40POPC   C2A 5392   0.997   2.031   5.071
   40POPC    OH 5393   1.109   1.992   5.041
   40POPC   C2B 5394   0.885   2.045   4.971
   40POPC   C2C 5395   0.944   2.082   4.832
   40POPC   C2D 5396   0.840   2.119   4.730
   40POPC   C2E 5397   0.895   2.153   4.584
   40POPC   C2F 5398   0.790   2.186   4.475
   40POPC   C2G 5399   0.855   2.216   4.335
   40POPC   C2H 5400   0.751   2.267   4.234
   40POPC   C2I 5401   0.821   2.295   4.097
   40POPC   C2J 5402   0.729   2.369   4.000
   40POPC   C2K 5403   0.817   2.410   3.883
   40POPC   C2L 5404   0.734   2.473   3.770
   40POPC   C2M 5405   0.818   2.563   3.679
   40POPC   C2N 5406   0.741   2.591   3.553
   40POPC   C2O 5407   0.815   2.686   3.458
   40POPC   C2P 5408   0.733   2.721   3.335
   41POPC   CN1 5409   0.571   2.005   5.669
   41POPC   CN2 5410   0.600   2.228   5.579
   41POPC   CN3 5411   0.583   2.182   5.828
   41POPC   NTM 5412   0.531   2.146   5.688
   41POPC    CA 5413   0.373   2.158   5.690
   41POPC    CB 5414   0.332   2.307   5.718
   41POPC    OA 5415   0.387   2.391   5.615
   41POPC     P 5416   0.341   2.539   5.604
   41POPC    OB 5417   0.461   2.606   5.651
   41POPC    OC 5418   0.215   2.560   5.673
   41POPC    OD 5419   0.328   2.559   5.449
   41POPC    CC 5420   0.296   2.460   5.354
   41POPC    CD 5421   0.415   2.388   5.295
   41POPC    OE 5422   0.482   2.478   5.209
   41POPC   C1A 5423   0.607   2.444   5.177
   41POPC    OF 5424   0.671   2.348   5.221
   41POPC   C1B 5425   0.660   2.557   5.092
   41POPC   C1C 5426   0.800   2.536   5.027
   41POPC   C1D 5427   0.783   2.446   4.903
   41POPC   C1E 5428   0.901   2.447   4.808
   41POPC   C1F 5429   0.896   2.336   4.701
   41POPC   C1G 5430   1.007   2.372   4.596
   41POPC   C1H 5431   0.985   2.289   4.468
   41POPC   C1I 5432   1.114   2.318   4.390
   41POPC   C1J 5433   1.121   2.369   4.269
   41POPC   C1K 5434   1.015   2.421   4.183
   41POPC   C1L 5435   1.044   2.441   4.029
   41POPC   C1M 5436   1.053   2.300   3.968
   41POPC   C1N 5437   1.056   2.293   3.814
   41POPC   C1O 5438   1.142   2.398   3.737
   41POPC   C1P 5439   1.156   2.377   3.594
   41POPC   C1Q 5440   1.031   2.417   3.511
   41POPC   C1R 5441   1.045   2.368   3.361
   41POPC    CE 5442   0.379   2.258   5.233
   41POPC    OG 5443   0.288   2.274   5.123
   41POPC   C2A 5444   0.334   2.259   5.001
   41POPC    OH 5445   0.446   2.218   4.970
   41POPC   C2B 5446   0.229   2.296   4.901
   41POPC   C2C 5447   0.297   2.352   4.773
   41POPC   C2D 5448   0.201   2.412   4.674
   41POPC   C2E 5449   0.265   2.467   4.539
   41POPC   C2F 5450   0.168   2.525   4.432
   41POPC   C2G 5451   0.242   2.573   4.302
   41POPC   C2H 5452   0.146   2.647   4.208
   41POPC   C2I 5453   0.225   2.694   4.081
   41POPC   C2J 5454   0.141   2.789   3.994
   41POPC   C2K 5455   0.238   2.843   3.890
   41POPC   C2L 5456   0.165   2.929   3.786
   41POPC   C2M 5457   0.258   3.029   3.716
   41POPC   C2N 5458   0.189   3.082   3.592
   41POPC   C2O 5459   0.272   3.188   3.519
   41POPC   C2P 5460   0.199   3.247   3.400
   42POPC   CN1 5461   1.898   3.637   5.767
   42POPC   CN2 5462   1.727   3.555   5.617
   42POPC   CN3 5463   1.690   3.579   5.866
   42POPC   NTM 5464   1.788   3.539   5.756
   42POPC    CA 5465   1.841   3.393   5.788
   42POPC    CB 5466   1.722   3.291   5.784
   42POPC    OA 5467   1.663   3.294   5.653
   42POPC     P 5468   1.559   3.186   5.613
   42POPC    OB 5469   1.438   3.265   5.613
   42POPC    OC 5470   1.569   3.069   5.699
   42POPC    OD 5471   1.600   3.153   5.464
   42POPC    CC 5472   1.728   3.162   5.409
   42POPC    CD 5473   1.761   3.296   5.346
   42POPC    OE 5474   1.686   3.308   5.227
   42POPC   C1A 5475   1.676   3.432   5.180
   42POPC    OF 5476   1.716   3.536   5.233
   42POPC   C1B 5477   1.587   3.422   5.058
   42POPC   C1C 5478   1.570   3.551   4.972
   42POPC   C1D 5479   1.695   3.568   4.884
   42POPC   C1E 5480   1.678   3.665   4.769
   42POPC   C1F 5481   1.810   3.703   4.699
   42POPC   C1G 5482   1.770   3.777   4.567
   42POPC   C1H 5483   1.893   3.785   4.474
   42POPC   C1I 5484   1.842   3.881   4.365
   42POPC   C1J 5485   1.836   3.855   4.236
   42POPC   C1K 5486   1.864   3.731   4.164
   42POPC   C1L 5487   1.887   3.736   4.008
   42POPC   C1M 5488   2.023   3.803   3.987
   42POPC   C1N 5489   2.080   3.797   3.843
   42POPC   C1O 5490   1.982   3.821   3.724
   42POPC   C1P 5491   2.042   3.832   3.592
   42POPC   C1Q 5492   2.087   3.697   3.531
   42POPC   C1R 5493   2.173   3.719   3.400
   42POPC    CE 5494   1.907   3.319   5.331
   42POPC    OG 5495   1.968   3.222   5.243
   42POPC   C2A 5496   2.003   3.260   5.123
   42POPC    OH 5497   2.002   3.376   5.081
   42POPC   C2B 5498   2.048   3.143   5.042
   42POPC   C2C 5499   2.015   3.169   4.892
   42POPC   C2D 5500   2.036   3.049   4.804
   42POPC   C2E 5501   2.009   3.070   4.648
   42POPC   C2F 5502   2.035   2.950   4.554
   42POPC   C2G 5503   2.007   2.984   4.403
   42POPC   C2H 5504   2.015   2.858   4.315
   42POPC   C2I 5505   1.986   2.897   4.166
   42POPC   C2J 5506   1.968   2.774   4.077
   42POPC   C2K 5507   1.918   2.827   3.944
   42POPC   C2L 5508   1.909   2.715   3.839
   42POPC   C2M 5509   1.811   2.748   3.726
   42POPC   C2N 5510   1.834   2.653   3.611
   42POPC   C2O 5511   1.735   2.674   3.496
   42POPC   C2P 5512   1.755   2.572   3.384
   43POPC   CN1 5513   3.192   0.610   5.754
   43POPC   CN2 5514   3.194   0.425   5.599
   43POPC   CN3 5515   3.143   0.396   5.845
   43POPC   NTM 5516   3.229   0.467   5.741
   43POPC    CA 5517   3.381   0.446   5.780
   43POPC    CB 5518   3.416   0.294   5.773
   43POPC    OA 5519   3.393   0.246   5.640
   43POPC     P 5520   3.443   0.105   5.598
   43POPC    OB 5521   3.317   0.034   5.590
   43POPC    OC 5522   3.547   0.057   5.689
   43POPC    OD 5523   3.498   0.130   5.453
   43POPC    CC 5524   3.552   0.249   5.404
   43POPC    CD 5525   3.452   0.342   5.339
   43POPC    OE 5526   3.412   0.285   5.216
   43POPC   C1A 5527   3.300   0.334   5.164
   43POPC    OF 5528   3.224   0.416   5.216
   43POPC   C1B 5529   3.274   0.253   5.039
   43POPC   C1C 5530   3.156   0.300   4.948
   43POPC   C1D 5531   3.203   0.421   4.865
   43POPC   C1E 5532   3.115   0.454   4.746
   43POPC   C1F 5533   3.146   0.590   4.681
   43POPC   C1G 5534   3.068   0.592   4.545
   43POPC   C1H 5535   3.122   0.707   4.458
   43POPC   C1I 5536   3.019   0.710   4.343
   43POPC   C1J 5537   3.046   0.696   4.216
   43POPC   C1K 5538   3.172   0.665   4.149
   43POPC   C1L 5539   3.186   0.692   3.994
   43POPC   C1M 5540   3.190   0.844   3.977
   43POPC   C1N 5541   3.229   0.896   3.836
   43POPC   C1O 5542   3.169   0.822   3.712
   43POPC   C1P 5543   3.193   0.885   3.583
   43POPC   C1Q 5544   3.336   0.863   3.528
   43POPC   C1R 5545   3.363   0.953   3.401
   43POPC    CE 5546   3.500   0.482   5.329
   43POPC    OG 5547   3.618   0.493   5.247
   43POPC   C2A 5548   3.606   0.545   5.128
   43POPC    OH 5549   3.505   0.599   5.082
   43POPC   C2B 5550   3.735   0.533   5.052
   43POPC   C2C 5551   3.704   0.519   4.900
   43POPC   C2D 5552   3.825   0.485   4.817
   43POPC   C2E 5553   3.801   0.475   4.659
   43POPC   C2F 5554   3.924   0.445   4.570
   43POPC   C2G 5555   3.889   0.440   4.417
   43POPC   C2H 5556   4.008   0.391   4.334
   43POPC   C2I 5557   3.967   0.387   4.183
   43POPC   C2J 5558   4.072   0.317   4.097
   43POPC   C2K 5559   4.008   0.300   3.960
   43POPC   C2L 5560   4.109   0.243   3.858
   43POPC   C2M 5561   4.040   0.174   3.740
   43POPC   C2N 5562   4.141   0.154   3.629
   43POPC   C2O 5563   4.082   0.079   3.510
   43POPC   C2P 5564   4.187   0.052   3.402
   44POPC   CN1 5565   2.064   3.194   5.766
   44POPC   CN2 5566   1.956   3.034   5.622
   44POPC   CN3 5567   1.935   3.025   5.874
   44POPC   NTM 5568   2.028   3.051   5.755
   44POPC    CA 5569   2.157   2.961   5.773
   44POPC    CB 5570   2.116   2.809   5.768
   44POPC    OA 5571   2.054   2.782   5.641
   44POPC     P 5572   2.026   2.635   5.600
   44POPC    OB 5573   1.881   2.631   5.614
   44POPC    OC 5574   2.108   2.542   5.676
   44POPC    OD 5575   2.063   2.635   5.447
   44POPC    CC 5576   2.158   2.717   5.385
   44POPC    CD 5577   2.104   2.848   5.331
   44POPC    OE 5578   2.024   2.818   5.218
   44POPC   C1A 5579   1.941   2.915   5.181
   44POPC    OF 5580   1.920   3.022   5.239
   44POPC   C1B 5581   1.862   2.859   5.064
   44POPC   C1C 5582   1.767   2.958   4.990
   44POPC   C1D 5583   1.851   3.046   4.895
   44POPC   C1E 5584   1.772   3.119   4.789
   44POPC   C1F 5585   1.852   3.227   4.714
   44POPC   C1G 5586   1.765   3.269   4.591
   44POPC   C1H 5587   1.852   3.348   4.491
   44POPC   C1I 5588   1.745   3.401   4.394
   44POPC   C1J 5589   1.743   3.380   4.264
   44POPC   C1K 5590   1.829   3.295   4.181
   44POPC   C1L 5591   1.830   3.317   4.024
   44POPC   C1M 5592   1.902   3.450   4.000
   44POPC   C1N 5593   1.938   3.482   3.853
   44POPC   C1O 5594   1.832   3.448   3.743
   44POPC   C1P 5595   1.863   3.496   3.609
   44POPC   C1Q 5596   1.970   3.411   3.534
   44POPC   C1R 5597   2.015   3.482   3.400
   44POPC    CE 5598   2.209   2.950   5.307
   44POPC    OG 5599   2.305   2.907   5.209
   44POPC   C2A 5600   2.300   2.961   5.090
   44POPC    OH 5601   2.230   3.057   5.057
   44POPC   C2B 5602   2.396   2.893   4.997
   44POPC   C2C 5603   2.340   2.899   4.852
   44POPC   C2D 5604   2.416   2.815   4.754
   44POPC   C2E 5605   2.367   2.821   4.602
   44POPC   C2F 5606   2.447   2.740   4.498
   44POPC   C2G 5607   2.391   2.756   4.352
   44POPC   C2H 5608   2.460   2.659   4.254
   44POPC   C2I 5609   2.399   2.679   4.111
   44POPC   C2J 5610   2.446   2.570   4.014
   44POPC   C2K 5611   2.361   2.589   3.889
   44POPC   C2L 5612   2.407   2.495   3.776
   44POPC   C2M 5613   2.297   2.469   3.673
   44POPC   C2N 5614   2.360   2.407   3.549
   44POPC   C2O 5615   2.255   2.372   3.443
   44POPC   C2P 5616   2.317   2.302   3.323
   45POPC   CN1 5617   5.104   0.985   5.697
   45POPC   CN2 5618   4.952   1.146   5.599
   45POPC   CN3 5619   4.963   1.101   5.848
   45POPC   NTM 5620   4.967   1.040   5.708
   45POPC    CA 5621   4.861   0.923   5.702
   45POPC    CB 5622   4.717   0.982   5.723
   45POPC    OA 5623   4.691   1.078   5.619
   45POPC     P 5624   4.547   1.134   5.600
   45POPC    OB 5625   4.565   1.269   5.650
   45POPC    OC 5626   4.448   1.047   5.663
   45POPC    OD 5627   4.532   1.137   5.444
   45POPC    CC 5628   4.595   1.052   5.352
   45POPC    CD 5629   4.729   1.103   5.301
   45POPC    OE 5630   4.704   1.212   5.215
   45POPC   C1A 5631   4.810   1.289   5.190
   45POPC    OF 5632   4.922   1.280   5.241
   45POPC   C1B 5633   4.758   1.402   5.103
   45POPC   C1C 5634   4.865   1.500   5.045
   45POPC   C1D 5635   4.933   1.433   4.924
   45POPC   C1E 5636   5.010   1.528   4.835
   45POPC   C1F 5637   5.100   1.456   4.732
   45POPC   C1G 5638   5.146   1.567   4.631
   45POPC   C1H 5639   5.206   1.500   4.505
   45POPC   C1I 5640   5.267   1.620   4.432
   45POPC   C1J 5641   5.238   1.659   4.310
   45POPC   C1K 5642   5.137   1.608   4.217
   45POPC   C1L 5643   5.148   1.645   4.064
   45POPC   C1M 5644   5.268   1.566   4.009
   45POPC   C1N 5645   5.285   1.566   3.856
   45POPC   C1O 5646   5.260   1.700   3.779
   45POPC   C1P 5647   5.294   1.699   3.637
   45POPC   C1Q 5648   5.190   1.627   3.547
   45POPC   C1R 5649   5.246   1.609   3.400
   45POPC    CE 5650   4.813   0.995   5.242
   45POPC    OG 5651   4.750   0.934   5.127
   45POPC   C2A 5652   4.798   0.962   5.009
   45POPC    OH 5653   4.900   1.026   4.985
   45POPC   C2B 5654   4.710   0.904   4.902
   45POPC   C2C 5655   4.715   0.994   4.776
   45POPC   C2D 5656   4.615   0.956   4.670
   45POPC   C2E 5657   4.619   1.042   4.536
   45POPC   C2F 5658   4.520   1.003   4.423
   45POPC   C2G 5659   4.535   1.092   4.295
   45POPC   C2H 5660   4.423   1.064   4.193
   45POPC   C2I 5661   4.443   1.156   4.069
   45POPC   C2J 5662   4.322   1.150   3.974
   45POPC   C2K 5663   4.345   1.261   3.873
   45POPC   C2L 5664   4.238   1.258   3.762
   45POPC   C2M 5665   4.221   1.393   3.692
   45POPC   C2N 5666   4.144   1.373   3.564
   45POPC   C2O 5667   4.117   1.505   3.491
   45POPC   C2P 5668   4.031   1.485   3.366
   46POPC   CN1 5669   3.038   2.246   5.719
   46POPC   CN2 5670   2.920   2.073   5.598
   46POPC   CN3 5671   2.924   2.085   5.851
   46POPC   NTM 5672   3.004   2.102   5.722
   46POPC    CA 5673   3.136   2.015   5.734
   46POPC    CB 5674   3.098   1.863   5.746
   46POPC    OA 5675   3.025   1.825   5.628
   46POPC     P 5676   2.996   1.674   5.602
   46POPC    OB 5677   2.854   1.670   5.630
   46POPC    OC 5678   3.087   1.589   5.677
   46POPC    OD 5679   3.018   1.663   5.446
   46POPC    CC 5680   3.105   1.741   5.369
   46POPC    CD 5681   3.043   1.866   5.310
   46POPC    OE 5682   2.953   1.826   5.208
   46POPC   C1A 5683   2.865   1.919   5.172
   46POPC    OF 5684   2.848   2.030   5.223
   46POPC   C1B 5685   2.776   1.853   5.069
   46POPC   C1C 5686   2.672   1.944   4.996
   46POPC   C1D 5687   2.745   2.024   4.887
   46POPC   C1E 5688   2.654   2.088   4.784
   46POPC   C1F 5689   2.725   2.190   4.693
   46POPC   C1G 5690   2.625   2.220   4.576
   46POPC   C1H 5691   2.700   2.293   4.462
   46POPC   C1I 5692   2.584   2.336   4.371
   46POPC   C1J 5693   2.569   2.304   4.245
   46POPC   C1K 5694   2.649   2.215   4.161
   46POPC   C1L 5695   2.634   2.223   4.004
   46POPC   C1M 5696   2.700   2.355   3.962
   46POPC   C1N 5697   2.722   2.375   3.810
   46POPC   C1O 5698   2.606   2.331   3.714
   46POPC   C1P 5699   2.623   2.368   3.574
   46POPC   C1Q 5700   2.724   2.279   3.496
   46POPC   C1R 5701   2.755   2.340   3.353
   46POPC    CE 5702   3.143   1.967   5.269
   46POPC    OG 5703   3.230   1.918   5.165
   46POPC   C2A 5704   3.213   1.962   5.043
   46POPC    OH 5705   3.138   2.054   5.009
   46POPC   C2B 5706   3.300   1.888   4.947
   46POPC   C2C 5707   3.230   1.881   4.808
   46POPC   C2D 5708   3.299   1.790   4.710
   46POPC   C2E 5709   3.235   1.784   4.563
   46POPC   C2F 5710   3.306   1.695   4.459
   46POPC   C2G 5711   3.236   1.699   4.318
   46POPC   C2H 5712   3.297   1.595   4.222
   46POPC   C2I 5713   3.223   1.603   4.085
   46POPC   C2J 5714   3.262   1.487   3.993
   46POPC   C2K 5715   3.165   1.494   3.875
   46POPC   C2L 5716   3.202   1.392   3.766
   46POPC   C2M 5717   3.083   1.356   3.677
   46POPC   C2N 5718   3.135   1.285   3.553
   46POPC   C2O 5719   3.022   1.240   3.461
   46POPC   C2P 5720   3.073   1.161   3.341
   47POPC   CN1 5721   1.707   0.703   5.709
   47POPC   CN2 5722   1.633   0.911   5.610
   47POPC   CN3 5723   1.629   0.869   5.860
   47POPC   NTM 5724   1.605   0.810   5.721
   47POPC    CA 5725   1.460   0.748   5.718
   47POPC    CB 5726   1.354   0.861   5.739
   47POPC    OA 5727   1.368   0.958   5.634
   47POPC     P 5728   1.259   1.068   5.615
   47POPC    OB 5729   1.332   1.184   5.662
   47POPC    OC 5730   1.134   1.030   5.681
   47POPC    OD 5731   1.245   1.075   5.459
   47POPC    CC 5732   1.266   0.970   5.368
   47POPC    CD 5733   1.407   0.961   5.315
   47POPC    OE 5734   1.428   1.069   5.227
   47POPC   C1A 5735   1.556   1.096   5.200
   47POPC    OF 5736   1.656   1.042   5.250
   47POPC   C1B 5737   1.554   1.218   5.111
   47POPC   C1C 5738   1.691   1.263   5.050
   47POPC   C1D 5739   1.723   1.172   4.930
   47POPC   C1E 5740   1.831   1.225   4.838
   47POPC   C1F 5741   1.882   1.122   4.735
   47POPC   C1G 5742   1.968   1.203   4.633
   47POPC   C1H 5743   1.992   1.115   4.507
   47POPC   C1I 5744   2.096   1.199   4.431
   47POPC   C1J 5745   2.084   1.244   4.309
   47POPC   C1K 5746   1.970   1.239   4.218
   47POPC   C1L 5747   1.992   1.266   4.064
   47POPC   C1M 5748   2.068   1.144   4.010
   47POPC   C1N 5749   2.081   1.135   3.856
   47POPC   C1O 5750   2.112   1.266   3.777
   47POPC   C1P 5751   2.140   1.250   3.635
   47POPC   C1Q 5752   2.014   1.225   3.547
   47POPC   C1R 5753   2.055   1.185   3.400
   47POPC    CE 5754   1.438   0.827   5.257
   47POPC    OG 5755   1.354   0.796   5.144
   47POPC   C2A 5756   1.407   0.801   5.025
   47POPC    OH 5757   1.526   0.816   4.999
   47POPC   C2B 5758   1.301   0.782   4.920
   47POPC   C2C 5759   1.341   0.861   4.792
   47POPC   C2D 5760   1.232   0.867   4.688
   47POPC   C2E 5761   1.269   0.942   4.552
   47POPC   C2F 5762   1.161   0.945   4.442
   47POPC   C2G 5763   1.209   1.019   4.311
   47POPC   C2H 5764   1.094   1.038   4.212
   47POPC   C2I 5765   1.148   1.112   4.085
   47POPC   C2J 5766   1.034   1.155   3.992
   47POPC   C2K 5767   1.099   1.246   3.888
   47POPC   C2L 5768   0.998   1.285   3.779
   47POPC   C2M 5769   1.038   1.414   3.706
   47POPC   C2N 5770   0.957   1.427   3.579
   47POPC   C2O 5771   0.985   1.557   3.504
   47POPC   C2P 5772   0.897   1.573   3.381
   48POPC   CN1 5773   2.350   1.367   5.751
   48POPC   CN2 5774   2.414   1.561   5.622
   48POPC   CN3 5775   2.405   1.562   5.875
   48POPC   NTM 5776   2.338   1.514   5.746
   48POPC    CA 5777   2.186   1.557   5.751
   48POPC    CB 5778   2.175   1.714   5.754
   48POPC    OA 5779   2.238   1.766   5.635
   48POPC     P 5780   2.221   1.917   5.600
   48POPC    OB 5781   2.353   1.966   5.630
   48POPC    OC 5782   2.105   1.974   5.668
   48POPC    OD 5783   2.200   1.913   5.444
   48POPC    CC 5784   2.144   1.808   5.370
   48POPC    CD 5785   2.243   1.705   5.320
   48POPC    OE 5786   2.320   1.764   5.217
   48POPC   C1A 5787   2.433   1.701   5.188
   48POPC    OF 5788   2.482   1.603   5.246
   48POPC   C1B 5789   2.501   1.786   5.082
   48POPC   C1C 5790   2.630   1.727   5.016
   48POPC   C1D 5791   2.588   1.622   4.912
   48POPC   C1E 5792   2.697   1.584   4.814
   48POPC   C1F 5793   2.664   1.460   4.728
   48POPC   C1G 5794   2.772   1.455   4.615
   48POPC   C1H 5795   2.726   1.358   4.505
   48POPC   C1I 5796   2.853   1.347   4.418
   48POPC   C1J 5797   2.861   1.375   4.291
   48POPC   C1K 5798   2.761   1.431   4.200
   48POPC   C1L 5799   2.783   1.419   4.044
   48POPC   C1M 5800   2.761   1.271   4.009
   48POPC   C1N 5801   2.752   1.237   3.859
   48POPC   C1O 5802   2.851   1.309   3.761
   48POPC   C1P 5803   2.851   1.262   3.624
   48POPC   C1Q 5804   2.730   1.311   3.539
   48POPC   C1R 5805   2.724   1.236   3.400
   48POPC    CE 5806   2.179   1.576   5.283
   48POPC    OG 5807   2.085   1.591   5.175
   48POPC   C2A 5808   2.119   1.547   5.057
   48POPC    OH 5809   2.219   1.480   5.030
   48POPC   C2B 5810   2.016   1.586   4.955
   48POPC   C2C 5811   2.085   1.606   4.817
   48POPC   C2D 5812   1.996   1.666   4.713
   48POPC   C2E 5813   2.059   1.684   4.567
   48POPC   C2F 5814   1.967   1.741   4.456
   48POPC   C2G 5815   2.040   1.751   4.317
   48POPC   C2H 5816   1.954   1.826   4.214
   48POPC   C2I 5817   2.031   1.834   4.078
   48POPC   C2J 5818   1.962   1.928   3.979
   48POPC   C2K 5819   2.060   1.944   3.864
   48POPC   C2L 5820   1.997   2.024   3.748
   48POPC   C2M 5821   2.102   2.089   3.658
   48POPC   C2N 5822   2.036   2.134   3.530
   48POPC   C2O 5823   2.133   2.207   3.437
   48POPC   C2P 5824   2.064   2.259   3.311
   49POPC   CN1 5825   3.827   4.738   5.687
   49POPC   CN2 5826   4.007   4.610   5.590
   49POPC   CN3 5827   3.984   4.646   5.839
   49POPC   NTM 5828   3.971   4.709   5.700
   49POPC    CA 5829   4.055   4.843   5.699
   49POPC    CB 5830   4.206   4.812   5.722
   49POPC    OA 5831   4.252   4.724   5.617
   49POPC     P 5832   4.404   4.696   5.600
   49POPC    OB 5833   4.410   4.559   5.647
   49POPC    OC 5834   4.484   4.799   5.667
   49POPC    OD 5835   4.422   4.699   5.444
   49POPC    CC 5836   4.346   4.773   5.352
   49POPC    CD 5837   4.225   4.700   5.297
   49POPC    OE 5838   4.271   4.600   5.210
   49POPC   C1A 5839   4.181   4.505   5.181
   49POPC    OF 5840   4.069   4.492   5.230
   49POPC   C1B 5841   4.254   4.405   5.093
   49POPC   C1C 5842   4.169   4.291   5.031
   49POPC   C1D 5843   4.092   4.347   4.910
   49POPC   C1E 5844   4.035   4.242   4.817
   49POPC   C1F 5845   3.935   4.298   4.713
   49POPC   C1G 5846   3.912   4.183   4.610
   49POPC   C1H 5847   3.844   4.241   4.484
   49POPC   C1I 5848   3.807   4.113   4.407
   49POPC   C1J 5849   3.845   4.083   4.285
   49POPC   C1K 5850   3.936   4.153   4.195
   49POPC   C1L 5851   3.935   4.119   4.041
   49POPC   C1M 5852   3.804   4.175   3.985
   49POPC   C1N 5853   3.790   4.176   3.831
   49POPC   C1O 5854   3.841   4.051   3.753
   49POPC   C1P 5855   3.810   4.049   3.610
   49POPC   C1Q 5856   3.900   4.141   3.524
   49POPC   C1R 5857   3.845   4.152   3.376
   49POPC    CE 5858   4.123   4.792   5.239
   49POPC    OG 5859   4.176   4.866   5.127
   49POPC   C2A 5860   4.137   4.832   5.007
   49POPC    OH 5861   4.048   4.751   4.979
   49POPC   C2B 5862   4.214   4.909   4.904
   49POPC   C2C 5863   4.228   4.821   4.775
   49POPC   C2D 5864   4.322   4.879   4.673
   49POPC   C2E 5865   4.336   4.797   4.536
   49POPC   C2F 5866   4.428   4.857   4.427
   49POPC   C2G 5867   4.432   4.769   4.297
   49POPC   C2H 5868   4.538   4.820   4.198
   49POPC   C2I 5869   4.539   4.729   4.071
   49POPC   C2J 5870   4.658   4.759   3.980
   49POPC   C2K 5871   4.658   4.648   3.876
   49POPC   C2L 5872   4.764   4.673   3.767
   49POPC   C2M 5873   4.807   4.545   3.695
   49POPC   C2N 5874   4.882   4.582   3.569
   49POPC   C2O 5875   4.934   4.459   3.494
   49POPC   C2P 5876   5.016   4.497   3.372
   50POPC   CN1 5877   1.538   0.195   5.766
   50POPC   CN2 5878   1.457   0.371   5.622
   50POPC   CN3 5879   1.459   0.391   5.874
   50POPC   NTM 5880   1.434   0.299   5.755
   50POPC    CA 5881   1.290   0.235   5.771
   50POPC    CB 5882   1.181   0.348   5.767
   50POPC    OA 5883   1.191   0.417   5.641
   50POPC     P 5884   1.079   0.517   5.600
   50POPC    OB 5885   1.150   0.642   5.615
   50POPC    OC 5886   0.957   0.493   5.676
   50POPC    OD 5887   1.060   0.486   5.447
   50POPC    CC 5888   1.082   0.362   5.384
   50POPC    CD 5889   1.222   0.342   5.330
   50POPC    OE 5890   1.239   0.427   5.218
   50POPC   C1A 5891   1.365   0.448   5.182
   50POPC    OF 5892   1.467   0.410   5.240
   50POPC   C1B 5893   1.358   0.546   5.066
   50POPC   C1C 5894   1.492   0.577   4.992
   50POPC   C1D 5895   1.524   0.460   4.897
   50POPC   C1E 5896   1.628   0.491   4.791
   50POPC   C1F 5897   1.679   0.367   4.715
   50POPC   C1G 5898   1.761   0.422   4.594
   50POPC   C1H 5899   1.784   0.307   4.493
   50POPC   C1I 5900   1.885   0.372   4.396
   50POPC   C1J 5901   1.868   0.386   4.266
   50POPC   C1K 5902   1.752   0.356   4.182
   50POPC   C1L 5903   1.770   0.345   4.026
   50POPC   C1M 5904   1.848   0.215   4.001
   50POPC   C1N 5905   1.857   0.169   3.854
   50POPC   C1O 5906   1.883   0.278   3.744
   50POPC   C1P 5907   1.908   0.228   3.610
   50POPC   C1Q 5908   1.781   0.180   3.534
   50POPC   C1R 5909   1.819   0.106   3.400
   50POPC    CE 5910   1.256   0.199   5.306
   50POPC    OG 5911   1.170   0.140   5.207
   50POPC   C2A 5912   1.220   0.117   5.088
   50POPC    OH 5913   1.338   0.128   5.055
   50POPC   C2B 5914   1.112   0.071   4.994
   50POPC   C2C 5915   1.147   0.117   4.849
   50POPC   C2D 5916   1.036   0.095   4.751
   50POPC   C2E 5917   1.067   0.136   4.599
   50POPC   C2F 5918   0.956   0.110   4.494
   50POPC   C2G 5919   1.000   0.150   4.349
   50POPC   C2H 5920   0.882   0.142   4.251
   50POPC   C2I 5921   0.930   0.184   4.108
   50POPC   C2J 5922   0.813   0.202   4.011
   50POPC   C2K 5923   0.873   0.265   3.886
   50POPC   C2L 5924   0.770   0.275   3.774
   50POPC   C2M 5925   0.804   0.384   3.671
   50POPC   C2N 5926   0.720   0.363   3.547
   50POPC   C2O 5927   0.743   0.471   3.442
   50POPC   C2P 5928   0.652   0.455   3.321
   51POPC   CN1 5929   4.651   0.581   5.741
   51POPC   CN2 5930   4.498   0.693   5.591
   51POPC   CN3 5931   4.511   0.745   5.839
   51POPC   NTM 5932   4.515   0.636   5.732
   51POPC    CA 5933   4.408   0.525   5.771
   51POPC    CB 5934   4.264   0.587   5.769
   51POPC    OA 5935   4.237   0.637   5.637
   51POPC     P 5936   4.093   0.681   5.599
   51POPC    OB 5937   4.111   0.825   5.594
   51POPC    OC 5938   3.995   0.624   5.691
   51POPC    OD 5939   4.077   0.625   5.453
   51POPC    CC 5940   4.140   0.512   5.400
   51POPC    CD 5941   4.273   0.540   5.332
   51POPC    OE 5942   4.248   0.608   5.212
   51POPC   C1A 5943   4.353   0.671   5.159
   51POPC    OF 5944   4.465   0.682   5.208
   51POPC   C1B 5945   4.300   0.742   5.036
   51POPC   C1C 5946   4.406   0.811   4.944
   51POPC   C1D 5947   4.474   0.704   4.858
   51POPC   C1E 5948   4.550   0.758   4.739
   51POPC   C1F 5949   4.640   0.653   4.669
   51POPC   C1G 5950   4.685   0.718   4.534
   51POPC   C1H 5951   4.744   0.608   4.443
   51POPC   C1I 5952   4.804   0.692   4.329
   51POPC   C1J 5953   4.775   0.682   4.202
   51POPC   C1K 5954   4.673   0.600   4.135
   51POPC   C1L 5955   4.683   0.576   3.979
   51POPC   C1M 5956   4.803   0.483   3.958
   51POPC   C1N 5957   4.819   0.425   3.815
   51POPC   C1O 5958   4.793   0.520   3.694
   51POPC   C1P 5959   4.826   0.466   3.563
   51POPC   C1Q 5960   4.722   0.364   3.507
   51POPC   C1R 5961   4.777   0.293   3.378
   51POPC    CE 5962   4.358   0.418   5.318
   51POPC    OG 5963   4.295   0.318   5.235
   51POPC   C2A 5964   4.341   0.300   5.115
   51POPC    OH 5965   4.443   0.350   5.068
   51POPC   C2B 5966   4.253   0.205   5.039
   51POPC   C2C 5967   4.257   0.241   4.887
   51POPC   C2D 5968   4.156   0.166   4.805
   51POPC   C2E 5969   4.159   0.195   4.648
   51POPC   C2F 5970   4.060   0.116   4.559
   51POPC   C2G 5971   4.074   0.150   4.406
   51POPC   C2H 5972   3.962   0.085   4.324
   51POPC   C2I 5973   3.980   0.124   4.174
   51POPC   C2J 5974   3.859   0.082   4.089
   51POPC   C2K 5975   3.880   0.147   3.953
   51POPC   C2L 5976   3.773   0.102   3.852
   51POPC   C2M 5977   3.755   0.201   3.737
   51POPC   C2N 5978   3.677   0.134   3.626
   51POPC   C2O 5979   3.649   0.228   3.509
   51POPC   C2P 5980   3.563   0.162   3.402
   52POPC   CN1 5981   5.427   1.789   5.761
   52POPC   CN2 5982   5.249   1.691   5.630
   52POPC   CN3 5983   5.247   1.694   5.883
   52POPC   NTM 5984   5.332   1.676   5.757
   52POPC    CA 5985   5.410   1.539   5.770
   52POPC    CB 5986   5.308   1.420   5.773
   52POPC    OA 5987   5.230   1.422   5.653
   52POPC     P 5988   5.138   1.301   5.618
   52POPC    OB 5989   5.008   1.360   5.642
   52POPC    OC 5990   5.178   1.182   5.693
   52POPC    OD 5991   5.160   1.285   5.464
   52POPC    CC 5992   5.276   1.318   5.392
   52POPC    CD 5993   5.279   1.459   5.337
   52POPC    OE 5994   5.186   1.466   5.231
   52POPC   C1A 5995   5.150   1.590   5.196
   52POPC    OF 5996   5.182   1.696   5.252
   52POPC   C1B 5997   5.046   1.573   5.088
   52POPC   C1C 5998   4.997   1.703   5.016
   52POPC   C1D 5999   5.103   1.745   4.913
   52POPC   C1E 6000   5.055   1.845   4.810
   52POPC   C1F 6001   5.168   1.907   4.726
   52POPC   C1G 6002   5.097   1.982   4.608
   52POPC   C1H 6003   5.202   2.016   4.499
   52POPC   C1I 6004   5.122   2.109   4.407
   52POPC   C1J 6005   5.101   2.091   4.279
   52POPC   C1K 6006   5.135   1.977   4.193
   52POPC   C1L 6007   5.133   1.995   4.036
   52POPC   C1M 6008   5.253   2.085   4.002
   52POPC   C1N 6009   5.288   2.097   3.852
   52POPC   C1O 6010   5.169   2.112   3.750
   52POPC   C1P 6011   5.207   2.141   3.613
   52POPC   C1Q 6012   5.261   2.019   3.534
   52POPC   C1R 6013   5.322   2.063   3.395
   52POPC    CE 6014   5.416   1.505   5.303
   52POPC    OG 6015   5.476   1.425   5.199
   52POPC   C2A 6016   5.486   1.476   5.079
   52POPC    OH 6017   5.462   1.592   5.048
   52POPC   C2B 6018   5.535   1.372   4.983
   52POPC   C2C 6019   5.476   1.402   4.841
   52POPC   C2D 6020   5.501   1.292   4.741
   52POPC   C2E 6021   5.448   1.319   4.593
   52POPC   C2F 6022   5.477   1.210   4.487
   52POPC   C2G 6023   5.421   1.249   4.345
   52POPC   C2H 6024   5.434   1.132   4.246
   52POPC   C2I 6025   5.377   1.175   4.107
   52POPC   C2J 6026   5.364   1.056   4.011
   52POPC   C2K 6027   5.287   1.109   3.891
   52POPC   C2L 6028   5.279   1.004   3.779
   52POPC   C2M 6029   5.161   1.028   3.685
   52POPC   C2N 6030   5.181   0.945   3.560
   52POPC   C2O 6031   5.063   0.957   3.463
   52POPC   C2P 6032   5.080   0.868   3.341
   53POPC   CN1 6033   2.763   5.547   5.771
   53POPC   CN2 6034   2.842   5.718   5.620
   53POPC   CN3 6035   2.868   5.734   5.871
   53POPC   NTM 6036   2.777   5.693   5.756
   53POPC    CA 6037   2.637   5.764   5.776
   53POPC    CB 6038   2.655   5.920   5.768
   53POPC    OA 6039   2.709   5.953   5.639
   53POPC     P 6040   2.714   6.102   5.594
   53POPC    OB 6041   2.856   6.127   5.603
   53POPC    OC 6042   2.621   6.183   5.672
   53POPC    OD 6043   2.672   6.093   5.443
   53POPC    CC 6044   2.588   5.997   5.385
   53POPC    CD 6045   2.660   5.874   5.331
   53POPC    OE 6046   2.731   5.913   5.215
   53POPC   C1A 6047   2.827   5.828   5.177
   53POPC    OF 6048   2.864   5.727   5.236
   53POPC   C1B 6049   2.893   5.893   5.058
   53POPC   C1C 6050   2.999   5.807   4.981
   53POPC   C1D 6051   2.926   5.707   4.891
   53POPC   C1E 6052   3.012   5.644   4.784
   53POPC   C1F 6053   2.946   5.524   4.713
   53POPC   C1G 6054   3.035   5.493   4.588
   53POPC   C1H 6055   2.958   5.400   4.492
   53POPC   C1I 6056   3.068   5.361   4.392
   53POPC   C1J 6057   3.063   5.380   4.262
   53POPC   C1K 6058   2.963   5.449   4.180
   53POPC   C1L 6059   2.961   5.425   4.024
   53POPC   C1M 6060   2.909   5.281   4.004
   53POPC   C1N 6061   2.873   5.242   3.859
   53POPC   C1O 6062   2.970   5.288   3.745
   53POPC   C1P 6063   2.942   5.234   3.612
   53POPC   C1Q 6064   2.822   5.300   3.540
   53POPC   C1R 6065   2.784   5.221   3.409
   53POPC    CE 6066   2.570   5.758   5.313
   53POPC    OG 6067   2.466   5.784   5.217
   53POPC   C2A 6068   2.475   5.728   5.099
   53POPC    OH 6069   2.557   5.643   5.065
   53POPC   C2B 6070   2.368   5.780   5.008
   53POPC   C2C 6071   2.420   5.780   4.861
   53POPC   C2D 6072   2.329   5.850   4.764
   53POPC   C2E 6073   2.375   5.847   4.611
   53POPC   C2F 6074   2.280   5.915   4.508
   53POPC   C2G 6075   2.334   5.904   4.360
   53POPC   C2H 6076   2.249   5.987   4.264
   53POPC   C2I 6077   2.307   5.973   4.119
   53POPC   C2J 6078   2.242   6.073   4.022
   53POPC   C2K 6079   2.325   6.064   3.895
   53POPC   C2L 6080   2.262   6.148   3.782
   53POPC   C2M 6081   2.364   6.188   3.675
   53POPC   C2N 6082   2.290   6.237   3.553
   53POPC   C2O 6083   2.385   6.285   3.443
   53POPC   C2P 6084   2.309   6.343   3.323
   54POPC   CN1 6085   4.334   3.375   5.696
   54POPC   CN2 6086   4.199   3.529   5.568
   54POPC   CN3 6087   4.232   3.551   5.818
   54POPC   NTM 6088   4.210   3.455   5.701
   54POPC    CA 6089   4.087   3.363   5.736
   54POPC    CB 6090   3.957   3.450   5.749
   54POPC    OA 6091   3.935   3.518   5.624
   54POPC     P 6092   3.800   3.592   5.600
   54POPC    OB 6093   3.845   3.730   5.608
   54POPC    OC 6094   3.697   3.545   5.692
   54POPC    OD 6095   3.767   3.556   5.451
   54POPC    CC 6096   3.806   3.440   5.383
   54POPC    CD 6097   3.938   3.449   5.310
   54POPC    OE 6098   3.921   3.533   5.198
   54POPC   C1A 6099   4.034   3.580   5.145
   54POPC    OF 6100   4.149   3.565   5.188
   54POPC   C1B 6101   3.991   3.673   5.034
   54POPC   C1C 6102   4.104   3.731   4.942
   54POPC   C1D 6103   4.146   3.622   4.841
   54POPC   C1E 6104   4.226   3.674   4.724
   54POPC   C1F 6105   4.291   3.562   4.639
   54POPC   C1G 6106   4.341   3.631   4.508
   54POPC   C1H 6107   4.374   3.523   4.403
   54POPC   C1I 6108   4.445   3.606   4.294
   54POPC   C1J 6109   4.408   3.615   4.169
   54POPC   C1K 6110   4.290   3.560   4.101
   54POPC   C1L 6111   4.289   3.552   3.944
   54POPC   C1M 6112   4.388   3.441   3.905
   54POPC   C1N 6113   4.385   3.396   3.758
   54POPC   C1O 6114   4.373   3.507   3.648
   54POPC   C1P 6115   4.389   3.462   3.510
   54POPC   C1Q 6116   4.266   3.388   3.452
   54POPC   C1R 6117   4.300   3.322   3.313
   54POPC    CE 6118   3.997   3.316   5.279
   54POPC    OG 6119   3.912   3.239   5.191
   54POPC   C2A 6120   3.949   3.225   5.066
   54POPC    OH 6121   4.057   3.260   5.018
   54POPC   C2B 6122   3.842   3.157   4.987
   54POPC   C2C 6123   3.846   3.208   4.840
   54POPC   C2D 6124   3.729   3.162   4.757
   54POPC   C2E 6125   3.730   3.207   4.604
   54POPC   C2F 6126   3.614   3.157   4.514
   54POPC   C2G 6127   3.627   3.205   4.365
   54POPC   C2H 6128   3.502   3.171   4.284
   54POPC   C2I 6129   3.520   3.221   4.137
   54POPC   C2J 6130   3.390   3.212   4.057
   54POPC   C2K 6131   3.418   3.286   3.926
   54POPC   C2L 6132   3.299   3.272   3.829
   54POPC   C2M 6133   3.296   3.385   3.725
   54POPC   C2N 6134   3.202   3.346   3.613
   54POPC   C2O 6135   3.187   3.455   3.508
   54POPC   C2P 6136   3.086   3.419   3.400
   55POPC   CN1 6137   4.560   4.636   5.755
   55POPC   CN2 6138   4.768   4.600   5.639
   55POPC   CN3 6139   4.751   4.601   5.891
   55POPC   NTM 6140   4.704   4.665   5.760
   55POPC    CA 6141   4.728   4.821   5.771
   55POPC    CB 6142   4.881   4.851   5.785
   55POPC    OA 6143   4.949   4.799   5.670
   55POPC     P 6144   5.098   4.836   5.646
   55POPC    OB 6145   5.161   4.709   5.676
   55POPC    OC 6146   5.136   4.955   5.720
   55POPC    OD 6147   5.102   4.859   5.490
   55POPC    CC 6148   4.996   4.905   5.410
   55POPC    CD 6149   4.910   4.794   5.351
   55POPC    OE 6150   4.986   4.729   5.251
   55POPC   C1A 6151   4.939   4.609   5.216
   55POPC    OF 6152   4.845   4.548   5.266
   55POPC   C1B 6153   5.039   4.555   5.115
   55POPC   C1C 6154   5.001   4.422   5.043
   55POPC   C1D 6155   4.899   4.453   4.931
   55POPC   C1E 6156   4.882   4.343   4.829
   55POPC   C1F 6157   4.761   4.363   4.736
   55POPC   C1G 6158   4.778   4.258   4.621
   55POPC   C1H 6159   4.683   4.295   4.505
   55POPC   C1I 6160   4.694   4.170   4.415
   55POPC   C1J 6161   4.731   4.168   4.290
   55POPC   C1K 6162   4.781   4.277   4.205
   55POPC   C1L 6163   4.782   4.259   4.048
   55POPC   C1M 6164   4.635   4.262   4.003
   55POPC   C1N 6165   4.611   4.272   3.851
   55POPC   C1O 6166   4.701   4.185   3.757
   55POPC   C1P 6167   4.663   4.183   3.617
   55POPC   C1Q 6168   4.703   4.310   3.538
   55POPC   C1R 6169   4.638   4.311   3.394
   55POPC    CE 6170   4.777   4.843   5.306
   55POPC    OG 6171   4.787   4.941   5.201
   55POPC   C2A 6172   4.756   4.905   5.080
   55POPC    OH 6173   4.705   4.798   5.046
   55POPC   C2B 6174   4.789   5.015   4.983
   55POPC   C2C 6175   4.827   4.952   4.845
   55POPC   C2D 6176   4.883   5.052   4.747
   55POPC   C2E 6177   4.918   4.995   4.602
   55POPC   C2F 6178   4.971   5.096   4.497
   55POPC   C2G 6179   4.999   5.028   4.358
   55POPC   C2H 6180   5.069   5.126   4.262
   55POPC   C2I 6181   5.096   5.054   4.126
   55POPC   C2J 6182   5.187   5.137   4.035
   55POPC   C2K 6183   5.223   5.045   3.919
   55POPC   C2L 6184   5.302   5.120   3.811
   55POPC   C2M 6185   5.387   5.027   3.724
   55POPC   C2N 6186   5.431   5.101   3.600
   55POPC   C2O 6187   5.522   5.017   3.510
   55POPC   C2P 6188   5.574   5.095   3.390
   56POPC   CN1 6189   2.588   2.757   5.713
   56POPC   CN2 6190   2.768   2.872   5.601
   56POPC   CN3 6191   2.749   2.861   5.853
   56POPC   NTM 6192   2.674   2.877   5.721
   56POPC    CA 6193   2.584   3.007   5.731
   56POPC    CB 6194   2.676   3.133   5.747
   56POPC    OA 6195   2.763   3.141   5.633
   56POPC     P 6196   2.848   3.270   5.610
   56POPC    OB 6197   2.980   3.220   5.644
   56POPC    OC 6198   2.793   3.383   5.684
   56POPC    OD 6199   2.838   3.290   5.455
   56POPC    CC 6200   2.731   3.252   5.372
   56POPC    CD 6201   2.744   3.113   5.313
   56POPC    OE 6202   2.846   3.116   5.216
   56POPC   C1A 6203   2.894   2.997   5.181
   56POPC    OF 6204   2.866   2.887   5.230
   56POPC   C1B 6205   3.006   3.025   5.082
   56POPC   C1C 6206   3.070   2.902   5.011
   56POPC   C1D 6207   2.977   2.856   4.898
   56POPC   C1E 6208   3.041   2.764   4.797
   56POPC   C1F 6209   2.941   2.696   4.701
   56POPC   C1G 6210   3.027   2.631   4.588
   56POPC   C1H 6211   2.934   2.594   4.469
   56POPC   C1I 6212   3.029   2.510   4.381
   56POPC   C1J 6213   3.060   2.535   4.256
   56POPC   C1K 6214   3.024   2.649   4.171
   56POPC   C1L 6215   3.040   2.636   4.015
   56POPC   C1M 6216   2.931   2.539   3.968
   56POPC   C1N 6217   2.910   2.530   3.815
   56POPC   C1O 6218   3.037   2.528   3.724
   56POPC   C1P 6219   3.014   2.501   3.582
   56POPC   C1Q 6220   2.957   2.622   3.503
   56POPC   C1R 6221   2.912   2.579   3.358
   56POPC    CE 6222   2.615   3.057   5.266
   56POPC    OG 6223   2.557   3.137   5.160
   56POPC   C2A 6224   2.562   3.090   5.038
   56POPC    OH 6225   2.597   2.976   5.005
   56POPC   C2B 6226   2.513   3.193   4.941
   56POPC   C2C 6227   2.586   3.173   4.805
   56POPC   C2D 6228   2.560   3.284   4.706
   56POPC   C2E 6229   2.628   3.267   4.563
   56POPC   C2F 6230   2.600   3.377   4.457
   56POPC   C2G 6231   2.670   3.347   4.319
   56POPC   C2H 6232   2.656   3.467   4.223
   56POPC   C2I 6233   2.727   3.433   4.089
   56POPC   C2J 6234   2.739   3.556   3.998
   56POPC   C2K 6235   2.830   3.513   3.884
   56POPC   C2L 6236   2.839   3.622   3.776
   56POPC   C2M 6237   2.966   3.612   3.691
   56POPC   C2N 6238   2.951   3.697   3.568
   56POPC   C2O 6239   3.076   3.697   3.480
   56POPC   C2P 6240   3.063   3.790   3.360
   57POPC   CN1 6241   0.664   4.641   5.659
   57POPC   CN2 6242   0.480   4.514   5.569
   57POPC   CN3 6243   0.522   4.535   5.817
   57POPC   NTM 6244   0.585   4.518   5.679
   57POPC    CA 6245   0.681   4.392   5.684
   57POPC    CB 6246   0.596   4.263   5.714
   57POPC    OA 6247   0.499   4.247   5.609
   57POPC     P 6248   0.418   4.114   5.600
   57POPC    OB 6249   0.288   4.160   5.644
   57POPC    OC 6250   0.485   4.006   5.672
   57POPC    OD 6251   0.414   4.088   5.445
   57POPC    CC 6252   0.511   4.128   5.351
   57POPC    CD 6253   0.486   4.264   5.288
   57POPC    OE 6254   0.376   4.253   5.201
   57POPC   C1A 6255   0.319   4.368   5.167
   57POPC    OF 6256   0.347   4.481   5.210
   57POPC   C1B 6257   0.200   4.331   5.081
   57POPC   C1C 6258   0.124   4.449   5.012
   57POPC   C1D 6259   0.204   4.494   4.889
   57POPC   C1E 6260   0.126   4.580   4.791
   57POPC   C1F 6261   0.214   4.648   4.684
   57POPC   C1G 6262   0.115   4.705   4.577
   57POPC   C1H 6263   0.194   4.741   4.449
   57POPC   C1I 6264   0.087   4.818   4.369
   57POPC   C1J 6265   0.046   4.787   4.248
   57POPC   C1K 6266   0.079   4.672   4.163
   57POPC   C1L 6267   0.047   4.677   4.009
   57POPC   C1M 6268   0.147   4.777   3.948
   57POPC   C1N 6269   0.153   4.781   3.794
   57POPC   C1O 6270   0.018   4.774   3.715
   57POPC   C1P 6271   0.026   4.797   3.572
   57POPC   C1Q 6272   0.080   4.675   3.491
   57POPC   C1R 6273   0.110   4.715   3.342
   57POPC    CE 6274   0.608   4.322   5.227
   57POPC    OG 6275   0.659   4.241   5.119
   57POPC   C2A 6276   0.641   4.284   4.997
   57POPC    OH 6277   0.597   4.394   4.963
   57POPC   C2B 6278   0.684   4.179   4.899
   57POPC   C2C 6279   0.598   4.190   4.769
   57POPC   C2D 6280   0.619   4.077   4.673
   57POPC   C2E 6281   0.537   4.086   4.536
   57POPC   C2F 6282   0.560   3.973   4.432
   57POPC   C2G 6283   0.476   3.994   4.300
   57POPC   C2H 6284   0.486   3.872   4.208
   57POPC   C2I 6285   0.400   3.898   4.080
   57POPC   C2J 6286   0.385   3.771   3.995
   57POPC   C2K 6287   0.282   3.805   3.889
   57POPC   C2L 6288   0.268   3.691   3.786
   57POPC   C2M 6289   0.133   3.694   3.714
   57POPC   C2N 6290   0.140   3.605   3.592
   57POPC   C2O 6291   0.007   3.596   3.518
   57POPC   C2P 6292   0.013   3.499   3.400
   58POPC   CN1 6293   4.130   5.865   5.743
   58POPC   CN2 6294   4.039   6.049   5.616
   58POPC   CN3 6295   4.063   6.055   5.868
   58POPC   NTM 6296   4.027   5.970   5.746
   58POPC    CA 6297   3.885   5.906   5.772
   58POPC    CB 6298   3.777   6.020   5.783
   58POPC    OA 6299   3.776   6.095   5.661
   58POPC     P 6300   3.662   6.198   5.634
   58POPC    OB 6301   3.736   6.322   5.650
   58POPC    OC 6302   3.547   6.172   5.719
   58POPC    OD 6303   3.631   6.176   5.482
   58POPC    CC 6304   3.645   6.056   5.411
   58POPC    CD 6305   3.781   6.038   5.344
   58POPC    OE 6306   3.788   6.129   5.236
   58POPC   C1A 6307   3.911   6.152   5.190
   58POPC    OF 6308   4.017   6.110   5.237
   58POPC   C1B 6309   3.896   6.255   5.081
   58POPC   C1C 6310   4.023   6.290   4.997
   58POPC   C1D 6311   4.045   6.178   4.894
   58POPC   C1E 6312   4.140   6.215   4.782
   58POPC   C1F 6313   4.184   6.095   4.695
   58POPC   C1G 6314   4.255   6.156   4.570
   58POPC   C1H 6315   4.269   6.047   4.461
   58POPC   C1I 6316   4.361   6.116   4.360
   58POPC   C1J 6317   4.334   6.137   4.233
   58POPC   C1K 6318   4.211   6.113   4.158
   58POPC   C1L 6319   4.216   6.111   4.000
   58POPC   C1M 6320   4.290   5.982   3.961
   58POPC   C1N 6321   4.286   5.944   3.812
   58POPC   C1O 6322   4.303   6.059   3.707
   58POPC   C1P 6323   4.317   6.016   3.568
   58POPC   C1Q 6324   4.183   5.974   3.501
   58POPC   C1R 6325   4.209   5.907   3.360
   58POPC    CE 6326   3.810   5.897   5.310
   58POPC    OG 6327   3.716   5.844   5.214
   58POPC   C2A 6328   3.755   5.827   5.091
   58POPC    OH 6329   3.870   5.839   5.049
   58POPC   C2B 6330   3.639   5.787   5.004
   58POPC   C2C 6331   3.662   5.841   4.860
   58POPC   C2D 6332   3.543   5.825   4.770
   58POPC   C2E 6333   3.562   5.874   4.619
   58POPC   C2F 6334   3.442   5.854   4.523
   58POPC   C2G 6335   3.473   5.903   4.376
   58POPC   C2H 6336   3.348   5.901   4.288
   58POPC   C2I 6337   3.385   5.951   4.145
   58POPC   C2J 6338   3.260   5.974   4.059
   58POPC   C2K 6339   3.309   6.044   3.934
   58POPC   C2L 6340   3.197   6.061   3.831
   58POPC   C2M 6341   3.223   6.175   3.732
   58POPC   C2N 6342   3.129   6.161   3.615
   58POPC   C2O 6343   3.144   6.275   3.514
   58POPC   C2P 6344   3.043   6.266   3.400
   59POPC   CN1 6345   0.316   4.014   5.778
   59POPC   CN2 6346   0.178   3.875   5.636
   59POPC   CN3 6347   0.147   3.888   5.887
   59POPC   NTM 6348   0.247   3.883   5.772
   59POPC    CA 6349   0.350   3.766   5.801
   59POPC    CB 6350   0.274   3.629   5.802
   59POPC    OA 6351   0.212   3.609   5.674
   59POPC     P 6352   0.151   3.470   5.639
   59POPC    OB 6353   0.009   3.502   5.646
   59POPC    OC 6354   0.206   3.366   5.724
   59POPC    OD 6355   0.193   3.452   5.488
   59POPC    CC 6356   0.307   3.505   5.427
   59POPC    CD 6357   0.287   3.641   5.363
   59POPC    OE 6358   0.207   3.625   5.248
   59POPC   C1A 6359   0.151   3.736   5.202
   59POPC    OF 6360   0.154   3.849   5.253
   59POPC   C1B 6361   0.065   3.693   5.085
   59POPC   C1C 6362  -0.001   3.807   5.000
   59POPC   C1D 6363   0.106   3.865   4.906
   59POPC   C1E 6364   0.050   3.948   4.792
   59POPC   C1F 6365   0.157   4.030   4.715
   59POPC   C1G 6366   0.086   4.083   4.587
   59POPC   C1H 6367   0.193   4.133   4.487
   59POPC   C1I 6368   0.106   4.203   4.381
   59POPC   C1J 6369   0.104   4.175   4.253
   59POPC   C1K 6370   0.170   4.068   4.179
   59POPC   C1L 6371   0.182   4.078   4.022
   59POPC   C1M 6372   0.284   4.189   3.994
   59POPC   C1N 6373   0.332   4.202   3.848
   59POPC   C1O 6374   0.226   4.187   3.734
   59POPC   C1P 6375   0.272   4.217   3.599
   59POPC   C1Q 6376   0.358   4.106   3.535
   59POPC   C1R 6377   0.424   4.155   3.400
   59POPC    CE 6378   0.415   3.714   5.340
   59POPC    OG 6379   0.501   3.643   5.249
   59POPC   C2A 6380   0.514   3.690   5.127
   59POPC    OH 6381   0.470   3.797   5.085
   59POPC   C2B 6382   0.594   3.595   5.043
   59POPC   C2C 6383   0.546   3.605   4.895
   59POPC   C2D 6384   0.604   3.499   4.806
   59POPC   C2E 6385   0.563   3.507   4.651
   59POPC   C2F 6386   0.625   3.402   4.556
   59POPC   C2G 6387   0.580   3.422   4.406
   59POPC   C2H 6388   0.627   3.306   4.318
   59POPC   C2I 6389   0.578   3.331   4.171
   59POPC   C2J 6390   0.601   3.208   4.082
   59POPC   C2K 6391   0.528   3.238   3.952
   59POPC   C2L 6392   0.554   3.129   3.847
   59POPC   C2M 6393   0.445   3.123   3.740
   59POPC   C2N 6394   0.495   3.041   3.623
   59POPC   C2O 6395   0.390   3.024   3.514
   59POPC   C2P 6396   0.438   2.934   3.400
   60POPC   CN1 6397   1.553   5.775   5.696
   60POPC   CN2 6398   1.729   5.642   5.597
   60POPC   CN3 6399   1.714   5.686   5.846
   60POPC   NTM 6400   1.697   5.745   5.706
   60POPC    CA 6401   1.781   5.878   5.698
   60POPC    CB 6402   1.934   5.846   5.717
   60POPC    OA 6403   1.975   5.755   5.613
   60POPC     P 6404   2.126   5.725   5.593
   60POPC    OB 6405   2.132   5.589   5.643
   60POPC    OC 6406   2.209   5.829   5.653
   60POPC    OD 6407   2.139   5.723   5.436
   60POPC    CC 6408   2.061   5.795   5.345
   60POPC    CD 6409   1.938   5.722   5.295
   60POPC    OE 6410   1.980   5.618   5.209
   60POPC   C1A 6411   1.889   5.523   5.187
   60POPC    OF 6412   1.778   5.513   5.239
   60POPC   C1B 6413   1.958   5.421   5.099
   60POPC   C1C 6414   1.870   5.305   5.043
   60POPC   C1D 6415   1.790   5.359   4.923
   60POPC   C1E 6416   1.729   5.251   4.835
   60POPC   C1F 6417   1.627   5.305   4.733
   60POPC   C1G 6418   1.600   5.187   4.634
   60POPC   C1H 6419   1.528   5.242   4.508
   60POPC   C1I 6420   1.487   5.112   4.436
   60POPC   C1J 6421   1.521   5.078   4.314
   60POPC   C1K 6422   1.610   5.145   4.219
   60POPC   C1L 6423   1.604   5.106   4.067
   60POPC   C1M 6424   1.471   5.162   4.013
   60POPC   C1N 6425   1.453   5.159   3.860
   60POPC   C1O 6426   1.500   5.031   3.783
   60POPC   C1P 6427   1.465   5.024   3.642
   60POPC   C1Q 6428   1.553   5.113   3.550
   60POPC   C1R 6429   1.494   5.120   3.404
   60POPC    CE 6430   1.835   5.813   5.238
   60POPC    OG 6431   1.885   5.883   5.122
   60POPC   C2A 6432   1.842   5.846   5.004
   60POPC    OH 6433   1.751   5.765   4.982
   60POPC   C2B 6434   1.916   5.918   4.896
   60POPC   C2C 6435   1.925   5.828   4.770
   60POPC   C2D 6436   2.016   5.882   4.663
   60POPC   C2E 6437   2.026   5.795   4.529
   60POPC   C2F 6438   2.115   5.851   4.415
   60POPC   C2G 6439   2.114   5.759   4.287
   60POPC   C2H 6440   2.217   5.806   4.184
   60POPC   C2I 6441   2.213   5.712   4.060
   60POPC   C2J 6442   2.330   5.738   3.964
   60POPC   C2K 6443   2.326   5.624   3.863
   60POPC   C2L 6444   2.428   5.645   3.751
   60POPC   C2M 6445   2.468   5.514   3.681
   60POPC   C2N 6446   2.539   5.547   3.552
   60POPC   C2O 6447   2.588   5.421   3.479
   60POPC   C2P 6448   2.667   5.455   3.353
   61POPC   CN1 6449   2.471   4.537   5.677
   61POPC   CN2 6450   2.668   4.609   5.558
   61POPC   CN3 6451   2.665   4.572   5.808
   61POPC   NTM 6452   2.589   4.625   5.687
   61POPC    CA 6453   2.543   4.773   5.719
   61POPC    CB 6454   2.670   4.864   5.738
   61POPC    OA 6455   2.747   4.861   5.617
   61POPC     P 6456   2.865   4.962   5.598
   61POPC    OB 6457   2.977   4.872   5.612
   61POPC    OC 6458   2.851   5.075   5.688
   61POPC    OD 6459   2.849   5.004   5.447
   61POPC    CC 6460   2.730   5.008   5.373
   61POPC    CD 6461   2.696   4.880   5.300
   61POPC    OE 6462   2.787   4.866   5.193
   61POPC   C1A 6463   2.795   4.744   5.141
   61POPC    OF 6464   2.738   4.642   5.181
   61POPC   C1B 6465   2.902   4.751   5.034
   61POPC   C1C 6466   2.921   4.625   4.944
   61POPC   C1D 6467   2.810   4.623   4.838
   61POPC   C1E 6468   2.836   4.530   4.721
   61POPC   C1F 6469   2.713   4.507   4.631
   61POPC   C1G 6470   2.767   4.435   4.503
   61POPC   C1H 6471   2.659   4.441   4.392
   61POPC   C1I 6472   2.718   4.345   4.287
   61POPC   C1J 6473   2.745   4.376   4.162
   61POPC   C1K 6474   2.739   4.505   4.093
   61POPC   C1L 6475   2.739   4.509   3.936
   61POPC   C1M 6476   2.602   4.454   3.891
   61POPC   C1N 6477   2.568   4.471   3.741
   61POPC   C1O 6478   2.682   4.444   3.637
   61POPC   C1P 6479   2.641   4.443   3.497
   61POPC   C1Q 6480   2.618   4.584   3.437
   61POPC   C1R 6481   2.551   4.575   3.294
   61POPC    CE 6482   2.553   4.872   5.262
   61POPC    OG 6483   2.514   4.977   5.171
   61POPC   C2A 6484   2.495   4.946   5.045
   61POPC    OH 6485   2.493   4.833   4.997
   61POPC   C2B 6486   2.473   5.071   4.965
   61POPC   C2C 6487   2.526   5.048   4.820
   61POPC   C2D 6488   2.528   5.173   4.736
   61POPC   C2E 6489   2.577   5.156   4.585
   61POPC   C2F 6490   2.575   5.282   4.495
   61POPC   C2G 6491   2.622   5.252   4.348
   61POPC   C2H 6492   2.638   5.381   4.267
   61POPC   C2I 6493   2.686   5.345   4.122
   61POPC   C2J 6494   2.727   5.470   4.043
   61POPC   C2K 6495   2.793   5.418   3.916
   61POPC   C2L 6496   2.826   5.533   3.820
   61POPC   C2M 6497   2.938   5.497   3.721
   61POPC   C2N 6498   2.939   5.598   3.609
   61POPC   C2O 6499   3.052   5.573   3.509
   61POPC   C2P 6500   3.059   5.680   3.401
   62POPC   CN1 6501   0.702   3.111   5.685
   62POPC   CN2 6502   0.905   3.149   5.560
   62POPC   CN3 6503   0.905   3.109   5.810
   62POPC   NTM 6504   0.834   3.177   5.692
   62POPC    CA 6505   0.817   3.330   5.728
   62POPC    CB 6506   0.958   3.397   5.743
   62POPC    OA 6507   1.030   3.383   5.619
   62POPC     P 6508   1.163   3.461   5.597
   62POPC    OB 6509   1.258   3.352   5.606
   62POPC    OC 6510   1.173   3.574   5.689
   62POPC    OD 6511   1.150   3.508   5.448
   62POPC    CC 6512   1.031   3.534   5.378
   62POPC    CD 6513   0.973   3.415   5.304
   62POPC    OE 6514   1.056   3.388   5.194
   62POPC   C1A 6515   1.040   3.267   5.140
   62POPC    OF 6516   0.968   3.175   5.182
   62POPC   C1B 6517   1.143   3.257   5.030
   62POPC   C1C 6518   1.137   3.130   4.938
   62POPC   C1D 6519   1.024   3.150   4.836
   62POPC   C1E 6520   1.029   3.055   4.718
   62POPC   C1F 6521   0.901   3.056   4.631
   62POPC   C1G 6522   0.937   2.977   4.501
   62POPC   C1H 6523   0.828   3.004   4.394
   62POPC   C1I 6524   0.866   2.902   4.286
   62POPC   C1J 6525   0.894   2.929   4.161
   62POPC   C1K 6526   0.908   3.058   4.093
   62POPC   C1L 6527   0.904   3.064   3.936
   62POPC   C1M 6528   0.759   3.036   3.896
   62POPC   C1N 6529   0.723   3.060   3.747
   62POPC   C1O 6530   0.826   3.015   3.639
   62POPC   C1P 6531   0.782   3.024   3.500
   62POPC   C1Q 6532   0.781   3.168   3.443
   62POPC   C1R 6533   0.709   3.173   3.302
   62POPC    CE 6534   0.829   3.433   5.271
   62POPC    OG 6535   0.807   3.545   5.183
   62POPC   C2A 6536   0.779   3.520   5.058
   62POPC    OH 6537   0.754   3.410   5.009
   62POPC   C2B 6538   0.775   3.648   4.979
   62POPC   C2C 6539   0.819   3.619   4.832
   62POPC   C2D 6540   0.841   3.743   4.750
   62POPC   C2E 6541   0.880   3.719   4.597
   62POPC   C2F 6542   0.898   3.845   4.508
   62POPC   C2G 6543   0.934   3.809   4.359
   62POPC   C2H 6544   0.970   3.935   4.279
   62POPC   C2I 6545   1.006   3.894   4.133
   62POPC   C2J 6546   1.066   4.011   4.054
   62POPC   C2K 6547   1.117   3.950   3.924
   62POPC   C2L 6548   1.167   4.059   3.827
   62POPC   C2M 6549   1.267   4.005   3.724
   62POPC   C2N 6550   1.283   4.106   3.613
   62POPC   C2O 6551   1.386   4.063   3.509
   62POPC   C2P 6552   1.408   4.169   3.402
   63POPC   CN1 6553   4.325   4.095   5.710
   63POPC   CN2 6554   4.516   4.035   5.576
   63POPC   CN3 6555   4.506   3.993   5.825
   63POPC   NTM 6556   4.472   4.090   5.711
   63POPC    CA 6557   4.532   4.232   5.748
   63POPC    CB 6558   4.689   4.222   5.756
   63POPC    OA 6559   4.739   4.179   5.629
   63POPC     P 6560   4.892   4.184   5.601
   63POPC    OB 6561   4.924   4.043   5.604
   63POPC    OC 6562   4.959   4.276   5.693
   63POPC    OD 6563   4.898   4.235   5.452
   63POPC    CC 6564   4.804   4.318   5.389
   63POPC    CD 6565   4.692   4.244   5.318
   63POPC    OE 6566   4.747   4.182   5.203
   63POPC   C1A 6567   4.673   4.085   5.150
   63POPC    OF 6568   4.568   4.039   5.195
   63POPC   C1B 6569   4.754   4.030   5.034
   63POPC   C1C 6570   4.684   3.925   4.943
   63POPC   C1D 6571   4.590   3.999   4.846
   63POPC   C1E 6572   4.544   3.917   4.727
   63POPC   C1F 6573   4.429   3.982   4.648
   63POPC   C1G 6574   4.417   3.899   4.515
   63POPC   C1H 6575   4.331   3.978   4.414
   63POPC   C1I 6576   4.309   3.873   4.303
   63POPC   C1J 6577   4.342   3.887   4.177
   63POPC   C1K 6578   4.414   3.996   4.110
   63POPC   C1L 6579   4.407   4.007   3.953
   63POPC   C1M 6580   4.264   4.053   3.920
   63POPC   C1N 6581   4.239   4.096   3.773
   63POPC   C1O 6582   4.303   4.010   3.659
   63POPC   C1P 6583   4.262   4.043   3.524
   63POPC   C1Q 6584   4.329   4.171   3.467
   63POPC   C1R 6585   4.262   4.214   3.330
   63POPC    CE 6586   4.573   4.329   5.292
   63POPC    OG 6587   4.604   4.440   5.206
   63POPC   C2A 6588   4.562   4.436   5.082
   63POPC    OH 6589   4.486   4.352   5.034
   63POPC   C2B 6590   4.618   4.551   5.004
   63POPC   C2C 6591   4.636   4.509   4.855
   63POPC   C2D 6592   4.711   4.610   4.772
   63POPC   C2E 6593   4.728   4.574   4.618
   63POPC   C2F 6594   4.800   4.679   4.529
   63POPC   C2G 6595   4.809   4.634   4.378
   63POPC   C2H 6596   4.897   4.730   4.297
   63POPC   C2I 6597   4.903   4.680   4.148
   63POPC   C2J 6598   5.008   4.756   4.067
   63POPC   C2K 6599   5.018   4.682   3.934
   63POPC   C2L 6600   5.110   4.756   3.836
   63POPC   C2M 6601   5.168   4.664   3.728
   63POPC   C2N 6602   5.226   4.748   3.617
   63POPC   C2O 6603   5.291   4.664   3.508
   63POPC   C2P 6604   5.357   4.749   3.400
   64POPC   CN1 6605   5.234   3.522   5.741
   64POPC   CN2 6606   5.100   3.364   5.618
   64POPC   CN3 6607   5.114   3.363   5.871
   64POPC   NTM 6608   5.191   3.381   5.739
   64POPC    CA 6609   5.316   3.284   5.742
   64POPC    CB 6610   5.268   3.135   5.749
   64POPC    OA 6611   5.188   3.108   5.633
   64POPC     P 6612   5.147   2.961   5.601
   64POPC    OB 6613   5.006   2.965   5.634
   64POPC    OC 6614   5.235   2.866   5.668
   64POPC    OD 6615   5.163   2.955   5.444
   64POPC    CC 6616   5.253   3.030   5.367
   64POPC    CD 6617   5.198   3.162   5.316
   64POPC    OE 6618   5.102   3.134   5.216
   64POPC   C1A 6619   5.019   3.234   5.188
   64POPC    OF 6620   5.012   3.343   5.244
   64POPC   C1B 6621   4.922   3.179   5.085
   64POPC   C1C 6622   4.823   3.280   5.020
   64POPC   C1D 6623   4.898   3.361   4.912
   64POPC   C1E 6624   4.808   3.435   4.816
   64POPC   C1F 6625   4.882   3.536   4.727
   64POPC   C1G 6626   4.780   3.579   4.616
   64POPC   C1H 6627   4.857   3.651   4.502
   64POPC   C1I 6628   4.741   3.707   4.418
   64POPC   C1J 6629   4.720   3.682   4.291
   64POPC   C1K 6630   4.789   3.591   4.199
   64POPC   C1L 6631   4.770   3.608   4.044
   64POPC   C1M 6632   4.844   3.737   4.005
   64POPC   C1N 6633   4.861   3.763   3.854
   64POPC   C1O 6634   4.740   3.731   3.760
   64POPC   C1P 6635   4.754   3.773   3.621
   64POPC   C1Q 6636   4.846   3.682   3.536
   64POPC   C1R 6637   4.876   3.746   3.395
   64POPC    CE 6638   5.304   3.258   5.275
   64POPC    OG 6639   5.383   3.207   5.166
   64POPC   C2A 6640   5.365   3.259   5.047
   64POPC    OH 6641   5.295   3.357   5.021
   64POPC   C2B 6642   5.443   3.183   4.945
   64POPC   C2C 6643   5.368   3.188   4.808
   64POPC   C2D 6644   5.426   3.097   4.704
   64POPC   C2E 6645   5.357   3.102   4.560
   64POPC   C2F 6646   5.418   3.013   4.449
   64POPC   C2G 6647   5.343   3.029   4.311
   64POPC   C2H 6648   5.393   2.926   4.208
   64POPC   C2I 6649   5.315   2.945   4.075
   64POPC   C2J 6650   5.342   2.831   3.976
   64POPC   C2K 6651   5.243   2.850   3.863
   64POPC   C2L 6652   5.268   2.751   3.748
   64POPC   C2M 6653   5.144   2.727   3.662
   64POPC   C2N 6654   5.186   2.660   3.533
   64POPC   C2O 6655   5.067   2.626   3.443
   64POPC   C2P 6656   5.108   2.550   3.318
   6.31000   6.34000   6.00000
