pure POPC
 6656
    1POPC   CN1    1   4.191   4.520   0.514 -0.1289 -0.6921  0.3920
    1POPC   CN2    2   4.224   4.287   0.439 -0.5944 -0.1868  0.3126
    1POPC   CN3    3   4.400   4.422   0.521  0.2255  0.2742  0.4082
    1POPC   NTM    4   4.276   4.425   0.441  0.1710 -0.4744  0.4568
    1POPC    CA    5   4.302   4.476   0.306 -0.0421  0.0622  0.6182
    1POPC    CB    6   4.341   4.383   0.191 -0.2661  0.4796  0.1974
    1POPC    OA    7   4.461   4.311   0.221 -0.4242  0.1129 -0.0476
    1POPC     P    8   4.604   4.383   0.211 -0.3921  0.0606  0.0421
    1POPC    OB    9   4.586   4.530   0.206  0.2932  0.1408 -0.1130
    1POPC    OC   10   4.691   4.311   0.117  0.1890  1.1236 -0.2525
    1POPC    OD   11   4.642   4.343   0.363  0.3305  0.1361 -0.1155
    1POPC    CC   12   4.685   4.208   0.379  0.3479  0.0636 -0.7540
    1POPC    CD   13   4.581   4.108   0.431  0.5190  0.3042  0.0605
    1POPC    OE   14   4.547   4.139   0.566  0.2885  0.1515  0.0374
    1POPC   C1A   15   4.452   4.079   0.637  0.0275  0.1015 -0.3527
    1POPC    OF   16   4.398   3.976   0.595  0.1673 -0.0813 -0.0833
    1POPC   C1B   17   4.438   4.154   0.764  0.1930  0.1280 -0.3506
    1POPC   C1C   18   4.452   4.060   0.884 -0.4194  0.1631 -0.2496
    1POPC   C1D   19   4.492   4.141   1.007 -0.3916 -0.2031 -0.0167
    1POPC   C1E   20   4.528   4.048   1.123  0.4068 -0.0314 -0.1252
    1POPC   C1F   21   4.572   4.128   1.245  0.6661 -0.3320 -0.0202
    1POPC   C1G   22   4.717   4.177   1.243  0.6283 -0.2058  0.2296
    1POPC   C1H   23   4.764   4.222   1.382 -0.2714 -0.0031  0.4734
    1POPC   C1I   24   4.687   4.338   1.445 -0.2652  0.2409  0.0343
    1POPC   C1J   25   4.683   4.350   1.578  0.0715  0.0653  0.0632
    1POPC   C1K   26   4.764   4.251   1.661 -0.6044 -0.3547  0.2336
    1POPC   C1L   27   4.820   4.323   1.784 -0.0231 -0.2225 -0.1014
    1POPC   C1M   28   4.901   4.224   1.868 -0.2958  0.0427  0.4809
    1POPC   C1N   29   4.924   4.289   2.005  0.0803 -0.1378  0.5054
    1POPC   C1O   30   5.014   4.207   2.098  0.5077  0.0021  0.2166
    1POPC   C1P   31   5.159   4.212   2.048  0.3162 -0.4341 -0.3864
    1POPC   C1Q   32   5.251   4.231   2.168  0.0098  0.5019 -0.2891
    1POPC   C1R   33   5.396   4.224   2.118 -0.1302 -0.3345 -0.6089
    1POPC    CE   34   4.628   3.962   0.423 -0.0187  0.1450 -0.2267
    1POPC    OG   35   4.688   3.928   0.298  0.7189  0.0679  0.1441
    1POPC   C2A   36   4.698   3.796   0.282  0.2956  0.0739 -0.2102
    1POPC    OH   37   4.651   3.712   0.359 -0.2655 -0.0428 -0.6765
    1POPC   C2B   38   4.791   3.766   0.171  0.8078 -0.0904  0.2534
    1POPC   C2C   39   4.916   3.693   0.221  0.4476 -0.4183  0.6785
    1POPC   C2D   40   4.979   3.758   0.344  0.1971  0.4740  0.3458
    1POPC   C2E   41   5.027   3.644   0.434 -0.1320 -0.1908 -0.3129
    1POPC   C2F   42   5.084   3.693   0.568 -0.2660  0.1081 -0.3654
    1POPC   C2G   43   5.060   3.593   0.681 -0.0682  0.4017 -0.0606
    1POPC   C2H   44   5.115   3.651   0.811  0.0141  0.3814 -0.0867
    1POPC   C2I   45   5.120   3.549   0.925 -0.0263  0.1341 -0.3051
    1POPC   C2J   46   5.170   3.598   1.061 -0.1793  0.2348 -0.2856
    1POPC   C2K   47   5.155   3.476   1.153  1.0116  0.1073 -0.2490
    1POPC   C2L   48   5.194   3.511   1.297  0.3456 -0.1155 -0.0131
    1POPC   C2M   49   5.185   3.394   1.396 -0.0429  0.2236  0.3538
    1POPC   C2N   50   5.153   3.411   1.545 -0.4364 -0.0945  0.3081
    1POPC   C2O   51   5.007   3.376   1.570 -0.5616  0.3180  0.1527
    1POPC   C2P   52   4.991   3.332   1.715  0.1189  0.5260  0.2941
    2POPC   CN1   53   5.523   4.527   0.274 -0.1211  0.2909  0.4365
    2POPC   CN2   54   5.696   4.438   0.405 -0.6522  0.3097  0.0060
    2POPC   CN3   55   5.742   4.505   0.187  0.2379 -0.2178 -0.3056
    2POPC   NTM   56   5.640   4.438   0.269 -0.0891  0.3683 -0.2286
    2POPC    CA   57   5.603   4.299   0.239  0.3794  0.2088 -0.0743
    2POPC    CB   58   5.654   4.227   0.114  0.0363 -0.0212 -0.0853
    2POPC    OA   59   5.794   4.247   0.088  0.1100 -0.0828  0.2598
    2POPC     P   60   5.894   4.139   0.154  0.1095 -0.3002 -0.0916
    2POPC    OB   61   6.024   4.132   0.083  0.2906 -0.6154  0.2682
    2POPC    OC   62   5.807   4.024   0.185  0.2914 -0.2505  0.6212
    2POPC    OD   63   5.911   4.228   0.287  0.1915 -0.2743 -0.1192
    2POPC    CC   64   6.011   4.158   0.362 -0.2808 -0.6941  0.1208
    2POPC    CD   65   6.024   4.209   0.506  0.6375 -0.1681 -0.1377
    2POPC    OE   66   6.148   4.176   0.569  0.4373  0.2196  0.4643
    2POPC   C1A   67   6.257   4.250   0.548  0.1600  0.5573  0.1891
    2POPC    OF   68   6.271   4.312   0.443 -0.1767 -0.0918 -0.2455
    2POPC   C1B   69   0.052   4.239   0.652  0.2612  0.2863  0.0585
    2POPC   C1C   70   0.028   4.325   0.776 -0.3727  0.2404 -0.0269
    2POPC   C1D   71   6.239   4.252   0.867 -0.0591 -0.4151 -0.2091
    2POPC   C1E   72   6.243   4.310   1.008  0.6910 -0.0931 -0.3571
    2POPC   C1F   73   6.201   4.456   1.015  0.6253 -0.1186 -0.1976
    2POPC   C1G   74   6.238   4.524   1.147 -0.0186 -0.8385  0.3596
    2POPC   C1H   75   6.190   4.669   1.155  0.7186 -0.5853  0.2944
    2POPC   C1I   76   6.272   4.776   1.083 -0.4221  0.1347  0.0384
    2POPC   C1J   77   6.209   4.863   1.005 -0.1314 -0.0550 -0.4168
    2POPC   C1K   78   6.059   4.866   1.036 -0.0224  0.2286  0.0908
    2POPC   C1L   79   6.018   5.005   1.084  0.0738  0.2207  0.1974
    2POPC   C1M   80   5.882   4.998   1.155 -0.0382 -0.0610 -0.0455
    2POPC   C1N   81   5.845   5.135   1.213  0.3696  0.2371 -0.4899
    2POPC   C1O   82   5.713   5.122   1.288  0.2864  0.3894 -0.6103
    2POPC   C1P   83   5.677   5.259   1.347  0.1841 -0.0217  0.3024
    2POPC   C1Q   84   5.551   5.239   1.431 -0.0220  0.2199  0.0513
    2POPC   C1R   85   5.500   5.365   1.502  1.1807  0.4009  0.6084
    2POPC    CE   86   5.893   4.174   0.577  0.9244 -0.6966  0.1424
    2POPC    OG   87   5.846   4.039   0.566  0.2863 -0.4808  0.1367
    2POPC   C2A   88   5.730   4.023   0.503  0.0234  0.0925  0.4685
    2POPC    OH   89   5.656   4.119   0.485 -0.0925 -0.0016  0.4407
    2POPC   C2B   90   5.694   3.882   0.480  0.4164  0.0657  0.0170
    2POPC   C2C   91   5.603   3.817   0.585  0.4004  0.2608  0.1236
    2POPC   C2D   92   5.675   3.778   0.714  0.4844  0.2443  0.0726
    2POPC   C2E   93   5.584   3.793   0.837  0.5907  0.1120  0.1678
    2POPC   C2F   94   5.638   3.719   0.960  0.0998 -0.0650  0.2797
    2POPC   C2G   95   5.530   3.746   1.064  0.1572  0.4887  0.1981
    2POPC   C2H   96   5.555   3.707   1.210  0.0273  0.2458  0.1560
    2POPC   C2I   97   5.598   3.563   1.234 -0.2137  0.2129  0.3967
    2POPC   C2J   98   5.627   3.570   1.384 -0.1184 -0.0814  0.3936
    2POPC   C2K   99   5.646   3.435   1.453  0.0137 -0.5273 -0.4945
    2POPC   C2L  100   5.685   3.451   1.601  0.0135  0.0153 -0.5501
    2POPC   C2M  101   5.579   3.524   1.683  0.6863  0.0770  0.2750
    2POPC   C2N  102   5.622   3.540   1.829  0.0320  0.1019  0.4685
    2POPC   C2O  103   5.637   3.413   1.914 -0.8785 -0.0832  0.3718
    2POPC   C2P  104   5.707   3.448   2.046 -0.0928 -0.1297 -0.0243
    3POPC   CN1  105   3.527   3.260   0.295  0.3285 -0.3145 -0.7958
    3POPC   CN2  106   3.379   3.441   0.274 -0.0854 -0.3696 -0.0303
    3POPC   CN3  107   3.338   3.256   0.142  0.4265 -0.3383 -0.4099
    3POPC   NTM  108   3.448   3.337   0.197  0.1425  0.0309 -0.3767
    3POPC    CA  109   3.522   3.390   0.082  0.4999  0.0516 -0.1392
    3POPC    CB  110   3.660   3.353   0.028  0.3910 -0.3549 -0.1450
    3POPC    OA  111   3.766   3.387   0.118 -0.0179  0.2102  0.1288
    3POPC     P  112   3.912   3.358   0.056 -0.0791  0.3248 -0.0730
    3POPC    OB  113   4.026   3.423   0.124  0.1684 -0.3657  0.1813
    3POPC    OC  114   3.893   3.370   5.910  0.6821  0.1359 -0.1907
    3POPC    OD  115   3.930   3.204   0.100 -0.4182  0.2896 -0.0563
    3POPC    CC  116   3.955   3.189   0.240  0.1027 -0.1109 -0.1878
    3POPC    CD  117   3.892   3.063   0.301 -0.1931  0.1348  0.0193
    3POPC    OE  118   3.889   3.056   0.443 -0.1051  0.2686  0.0282
    3POPC   C1A  119   3.770   3.034   0.500 -0.1584  0.1262 -0.1387
    3POPC    OF  120   3.670   3.029   0.429 -0.0841 -0.0761 -0.2316
    3POPC   C1B  121   3.774   3.024   0.648  0.1966 -0.6482 -0.1948
    3POPC   C1C  122   3.652   3.076   0.723  0.4825  0.4928 -0.5040
    3POPC   C1D  123   3.695   3.120   0.863 -0.2195 -0.6600  0.0852
    3POPC   C1E  124   3.598   3.123   0.981 -0.2163  0.0251  0.0727
    3POPC   C1F  125   3.674   3.135   1.114 -0.1366  0.3352 -0.0018
    3POPC   C1G  126   3.765   3.258   1.127  0.3551 -0.0585  0.2999
    3POPC   C1H  127   3.868   3.260   1.240  0.4295  0.1501  0.2292
    3POPC   C1I  128   3.812   3.278   1.381 -0.0677 -0.3760  0.1043
    3POPC   C1J  129   3.877   3.341   1.478 -0.1418 -0.0539 -0.0516
    3POPC   C1K  130   4.025   3.379   1.465 -0.1074 -0.0065  0.4316
    3POPC   C1L  131   4.085   3.376   1.605 -0.2575 -0.2532  0.4913
    3POPC   C1M  132   4.236   3.399   1.594 -0.4233  0.6470  0.0400
    3POPC   C1N  133   4.295   3.389   1.735  0.1156 -0.8279 -0.2740
    3POPC   C1O  134   4.442   3.432   1.728 -0.1423  0.0649 -0.2956
    3POPC   C1P  135   4.525   3.439   1.855 -0.1199 -0.4046 -0.2834
    3POPC   C1Q  136   4.659   3.512   1.841 -0.2670 -0.1208 -0.2251
    3POPC   C1R  137   4.711   3.543   1.982  0.0717 -0.3942 -0.2881
    3POPC    CE  138   3.955   2.941   0.233 -0.8653 -0.0859 -0.2194
    3POPC    OG  139   3.919   2.817   0.292 -0.1536 -0.2357 -0.0877
    3POPC   C2A  140   3.997   2.712   0.268  0.4833  0.1625  0.2096
    3POPC    OH  141   4.045   2.699   0.156  0.1670  0.6663  0.0097
    3POPC   C2B  142   3.986   2.604   0.369  0.0524  0.0452  0.0436
    3POPC   C2C  143   4.087   2.617   0.483  0.1882 -0.1756 -0.0521
    3POPC   C2D  144   4.031   2.705   0.595 -0.4369 -0.0187 -0.4890
    3POPC   C2E  145   4.131   2.718   0.710 -0.4277 -0.4018 -0.4534
    3POPC   C2F  146   4.069   2.796   0.826 -0.3708 -0.1456 -0.5948
    3POPC   C2G  147   3.956   2.714   0.890 -0.0205 -0.1847 -0.0232
    3POPC   C2H  148   3.888   2.800   0.997  0.0348  0.4093 -0.4583
    3POPC   C2I  149   3.800   2.719   1.092  0.5923  0.5209  0.1626
    3POPC   C2J  150   3.875   2.661   1.212  0.5696  0.6052  0.2178
    3POPC   C2K  151   3.788   2.573   1.303  0.2052  0.0771 -0.6239
    3POPC   C2L  152   3.645   2.612   1.343 -0.0142 -0.6911 -0.6578
    3POPC   C2M  153   3.572   2.490   1.400 -0.3751 -0.2572 -0.1858
    3POPC   C2N  154   3.510   2.404   1.289  0.0405 -0.0009 -0.6245
    3POPC   C2O  155   3.410   2.480   1.203  0.1449  0.1409 -0.6196
    3POPC   C2P  156   3.355   2.398   1.086 -0.7831  0.7350 -0.6120
    4POPC   CN1  157   4.382   3.110   5.803 -0.4044  0.7317 -0.5828
    4POPC   CN2  158   4.167   3.042   5.763 -0.1916 -0.3240  0.8623
    4POPC   CN3  159   4.215   3.171   5.965 -0.3489 -0.1727  0.0192
    4POPC   NTM  160   4.261   3.066   5.873  0.4004 -0.1011  0.3102
    4POPC    CA  161   4.284   2.936   5.937 -0.1710 -0.2733  0.1723
    4POPC    CB  162   4.379   2.921   0.056 -0.0568  0.0726  0.1259
    4POPC    OA  163   4.340   2.975   0.182  0.5235  0.2329  0.2410
    4POPC     P  164   4.361   2.864   0.297 -0.1436 -0.2209 -0.0670
    4POPC    OB  165   4.503   2.887   0.334 -0.0708 -0.3207 -0.2809
    4POPC    OC  166   4.318   2.732   0.244 -0.1050 -0.3974  0.3385
    4POPC    OD  167   4.264   2.933   0.405  0.3746  0.0314  0.2444
    4POPC    CC  168   4.334   2.980   0.520 -0.1977 -0.0144  0.6154
    4POPC    CD  169   4.310   3.128   0.550 -0.1216  0.1663 -0.1876
    4POPC    OE  170   4.407   3.185   0.639 -0.2019 -0.0520  0.0428
    4POPC   C1A  171   4.439   3.314   0.641 -0.2916 -0.0327  0.2945
    4POPC    OF  172   4.426   3.385   0.541  0.5212  0.0497  0.2404
    4POPC   C1B  173   4.530   3.346   0.754  0.6450  0.6320 -0.6330
    4POPC   C1C  174   4.521   3.487   0.812  0.5415  0.0902  0.6916
    4POPC   C1D  175   4.388   3.515   0.883  0.1581 -0.1265  0.0703
    4POPC   C1E  176   4.395   3.499   1.035  0.3212 -0.3517  0.0401
    4POPC   C1F  177   4.488   3.601   1.101 -0.1808  0.1130  0.0382
    4POPC   C1G  178   4.479   3.596   1.254  0.2550  0.1954  0.0679
    4POPC   C1H  179   4.579   3.681   1.333  0.1565  0.7413 -0.3860
    4POPC   C1I  180   4.717   3.631   1.289 -0.0952 -0.0988 -0.2424
    4POPC   C1J  181   4.816   3.664   1.372 -0.2945  0.7356 -0.3226
    4POPC   C1K  182   4.810   3.731   1.509 -0.6076  0.2158 -0.0757
    4POPC   C1L  183   4.944   3.739   1.584 -0.6000  0.6561 -0.1318
    4POPC   C1M  184   4.927   3.766   1.733 -0.0812 -0.6868  0.1855
    4POPC   C1N  185   5.061   3.733   1.798  0.3821  0.1940 -0.3021
    4POPC   C1O  186   5.071   3.770   1.946 -0.2426 -0.5690 -0.0624
    4POPC   C1P  187   5.202   3.716   2.004 -0.1686 -0.0965  0.2170
    4POPC   C1Q  188   5.204   3.563   1.995  0.0812 -0.1118  0.5114
    4POPC   C1R  189   5.308   3.510   2.094  0.3574  0.0348  0.3020
    4POPC    CE  190   4.162   3.152   0.580 -0.0734 -0.0537  0.2376
    4POPC    OG  191   4.137   3.120   0.717  0.8731 -0.4914  0.3198
    4POPC   C2A  192   4.149   3.219   0.805  0.1773  0.0737 -0.2110
    4POPC    OH  193   4.164   3.336   0.770  0.6070  0.1314  0.1653
    4POPC   C2B  194   4.134   3.169   0.944 -0.0781 -0.1089 -0.3035
    4POPC   C2C  195   4.255   3.100   1.005  0.1097  0.5533  0.0916
    4POPC   C2D  196   4.230   3.079   1.154 -0.0570  0.1601  0.0118
    4POPC   C2E  197   4.336   2.989   1.218 -0.3382  0.2643  0.6333
    4POPC   C2F  198   4.314   2.986   1.369  0.7485 -0.4866  0.7892
    4POPC   C2G  199   4.202   2.894   1.417 -0.0170  0.2541  0.4603
    4POPC   C2H  200   4.192   2.905   1.569  0.1846 -0.2062  0.5105
    4POPC   C2I  201   4.106   2.789   1.621 -0.1974 -0.1418  0.0300
    4POPC   C2J  202   3.963   2.828   1.582 -0.0982  0.1265 -0.0655
    4POPC   C2K  203   3.871   2.810   1.702  0.4548  0.5987  0.4346
    4POPC   C2L  204   3.744   2.895   1.690 -0.0308 -0.1872 -0.0666
    4POPC   C2M  205   3.628   2.830   1.765 -0.1055 -0.0818 -0.0902
    4POPC   C2N  206   3.545   2.728   1.687  0.0039  0.0719 -0.4095
    4POPC   C2O  207   3.433   2.662   1.767  0.1064 -0.2685 -0.5419
    4POPC   C2P  208   3.323   2.607   1.676 -0.0320 -0.4271 -0.2785
    5POPC   CN1  209   6.003   2.499   0.475 -0.3049  0.1289 -0.3300
    5POPC   CN2  210   5.946   2.472   0.711  0.0467 -1.1471  0.1986
    5POPC   CN3  211   5.901   2.294   0.564 -0.0201 -0.2583 -0.8929
    5POPC   NTM  212   5.909   2.441   0.572  0.2536 -0.3140 -0.0498
    5POPC    CA  213   5.783   2.506   0.536  0.5212 -0.1193 -0.6350
    5POPC    CB  214   5.782   2.659   0.528 -0.0144 -0.0802  0.1076
    5POPC    OA  215   5.791   2.730   0.652  0.0475 -0.0732  0.0991
    5POPC     P  216   5.691   2.852   0.681  0.2023  0.1204 -0.1714
    5POPC    OB  217   5.678   2.927   0.554  0.5105  0.0151 -0.2637
    5POPC    OC  218   5.736   2.906   0.812 -0.0423 -0.0479 -0.0161
    5POPC    OD  219   5.562   2.758   0.704  0.1387  0.2024 -0.1850
    5POPC    CC  220   5.552   2.724   0.842  0.1863 -0.2467 -0.2899
    5POPC    CD  221   5.600   2.595   0.910 -0.1460 -0.2087  0.0213
    5POPC    OE  222   5.523   2.482   0.868  0.1018 -0.2753 -0.2606
    5POPC   C1A  223   5.583   2.367   0.839 -0.2061 -0.2446 -1.0330
    5POPC    OF  224   5.703   2.374   0.815  0.0526 -0.7158  0.0878
    5POPC   C1B  225   5.497   2.247   0.833 -0.0713 -0.4138  0.1150
    5POPC   C1C  226   5.407   2.221   0.954  0.2391 -0.6411  0.2980
    5POPC   C1D  227   5.314   2.101   0.935 -0.2048 -0.2665  0.0803
    5POPC   C1E  228   5.212   2.089   1.049 -0.0107 -0.0376  0.2793
    5POPC   C1F  229   5.141   1.954   1.047 -0.6103  0.2775 -0.1263
    5POPC   C1G  230   5.036   1.949   1.158  0.3441  0.1631  0.7845
    5POPC   C1H  231   5.018   1.805   1.205 -1.0845 -0.2042 -0.8151
    5POPC   C1I  232   4.892   1.792   1.290 -0.0913  0.2639  0.7778
    5POPC   C1J  233   4.882   1.684   1.366 -0.5235 -0.0371  0.3032
    5POPC   C1K  234   5.000   1.592   1.395  0.0214  0.5786  0.0459
    5POPC   C1L  235   5.017   1.593   1.547 -0.2228  0.0044  0.0796
    5POPC   C1M  236   5.146   1.525   1.593 -0.1720  0.1314  0.1283
    5POPC   C1N  237   5.191   1.569   1.733 -0.0446 -0.3553  0.2430
    5POPC   C1O  238   5.326   1.507   1.767  0.1674  0.1130  0.2546
    5POPC   C1P  239   5.374   1.547   1.907  0.5199  0.1098  0.1358
    5POPC   C1Q  240   5.326   1.474   2.033 -0.4335 -0.2437 -0.4207
    5POPC   C1R  241   5.362   1.327   2.012  0.2431  0.0301 -1.2556
    5POPC    CE  242   5.615   2.630   1.058 -0.3325  0.0589 -0.0231
    5POPC    OG  243   5.490   2.617   1.128 -0.2149 -0.2831  0.1248
    5POPC   C2A  244   5.473   2.650   1.255  0.3674  0.1351  0.0977
    5POPC    OH  245   5.564   2.662   1.338 -0.1362 -0.2944  0.7226
    5POPC   C2B  246   5.329   2.634   1.286  0.3638  0.4212  0.2340
    5POPC   C2C  247   5.286   2.501   1.347 -0.2039  0.7780  0.6220
    5POPC   C2D  248   5.135   2.480   1.338 -0.0430 -0.0994 -0.1611
    5POPC   C2E  249   5.091   2.338   1.374  0.0959 -0.1676 -0.2570
    5POPC   C2F  250   5.084   2.333   1.527  0.5949  0.3946 -0.2094
    5POPC   C2G  251   4.962   2.406   1.584  0.3192 -0.0829 -0.1720
    5POPC   C2H  252   4.975   2.398   1.736 -0.5695 -0.1766 -0.0966
    5POPC   C2I  253   4.868   2.492   1.792 -0.4506 -0.1850  0.1477
    5POPC   C2J  254   4.878   2.482   1.944  0.4945 -0.1170  0.0933
    5POPC   C2K  255   4.812   2.600   2.015  0.2533 -0.2328  0.0606
    5POPC   C2L  256   4.724   2.556   2.133 -0.4809  0.2256 -0.3044
    5POPC   C2M  257   4.692   2.679   2.218 -0.2530  0.2499 -0.2519
    5POPC   C2N  258   4.592   2.632   2.325 -0.3756  0.2731 -0.3553
    5POPC   C2O  259   4.618   2.695   2.462 -0.5875 -0.1937 -0.1002
    5POPC   C2P  260   4.547   2.622   2.576 -0.2455 -0.0547  0.2035
    6POPC   CN1  261   5.689   3.659   6.000  0.0680 -0.4181  0.0540
    6POPC   CN2  262   5.791   3.558   0.186  0.0109  0.1318  0.0182
    6POPC   CN3  263   5.917   3.706   0.042 -0.5116  0.1070  0.1574
    6POPC   NTM  264   5.815   3.600   0.047  0.1050 -0.5130 -0.1609
    6POPC    CA  265   5.857   3.477   5.979 -0.2513 -0.7392  0.0247
    6POPC    CB  266   5.985   3.396   0.001 -0.0135 -0.2852  0.3357
    6POPC    OA  267   5.996   3.323   0.123 -0.2335 -0.2132  0.3977
    6POPC     P  268   6.097   3.198   0.131  0.1335  0.0371 -0.2815
    6POPC    OB  269   6.230   3.233   0.076  0.3543  0.2954  0.4118
    6POPC    OC  270   6.023   3.076   0.090  0.1590 -0.0267 -0.1367
    6POPC    OD  271   6.071   3.201   0.290 -0.1046  0.4802 -0.3279
    6POPC    CC  272   6.180   3.270   0.352  0.4188 -0.0868 -0.6022
    6POPC    CD  273   6.158   3.418   0.387 -0.3780 -0.3994  0.2812
    6POPC    OE  274   6.276   3.484   0.433 -0.2924  0.1712 -0.7194
    6POPC   C1A  275   6.270   3.617   0.440  0.7583  0.2025 -0.2235
    6POPC    OF  276   6.202   3.688   0.366  0.9771  0.8686  0.2036
    6POPC   C1B  277   0.062   3.664   0.536  0.8254  0.5902 -0.4816
    6POPC   C1C  278   0.050   3.812   0.575  0.2438  0.3820  0.1483
    6POPC   C1D  279   6.277   3.836   0.701 -0.4961 -0.1838 -0.2181
    6POPC   C1E  280   6.146   3.759   0.721 -0.4803 -0.0516  0.4054
    6POPC   C1F  281   6.055   3.821   0.827 -0.2512 -0.0059  0.5767
    6POPC   C1G  282   6.137   3.821   0.957  0.1475 -0.1714  0.3265
    6POPC   C1H  283   6.045   3.867   1.071 -0.0638  0.6545 -0.1627
    6POPC   C1I  284   5.970   3.746   1.128  0.5532  0.3939  0.1121
    6POPC   C1J  285   5.961   3.721   1.258  0.1939 -0.2504 -0.0345
    6POPC   C1K  286   6.045   3.793   1.364 -0.8595  0.3493  0.4053
    6POPC   C1L  287   6.051   3.727   1.502  0.5692 -0.7393 -0.1486
    6POPC   C1M  288   6.115   3.822   1.604  0.3230 -0.4533 -0.2593
    6POPC   C1N  289   6.068   3.794   1.747 -0.2342  0.4609 -0.2536
    6POPC   C1O  290   6.146   3.870   1.854  0.1012 -0.2211 -0.0108
    6POPC   C1P  291   6.146   4.022   1.839  0.3085 -0.1908  0.2836
    6POPC   C1Q  292   6.245   4.068   1.946  0.3304 -0.0770  0.2147
    6POPC   C1R  293   6.214   4.214   1.979  0.5669  0.0266 -0.0188
    6POPC    CE  294   6.032   3.430   0.471 -0.1766  0.9587  0.4041
    6POPC    OG  295   6.025   3.368   0.600  0.3523 -0.2081 -0.1216
    6POPC   C2A  296   5.904   3.352   0.653  0.4117 -0.7226 -0.1377
    6POPC    OH  297   5.804   3.398   0.599  0.3668 -0.0574  0.5067
    6POPC   C2B  298   5.915   3.274   0.779  0.2702 -0.2012  0.1997
    6POPC   C2C  299   5.890   3.350   0.909 -0.2774 -0.1046  0.0367
    6POPC   C2D  300   5.938   3.253   1.017  0.0235  0.2348  0.2105
    6POPC   C2E  301   5.939   3.322   1.154 -0.2717 -0.1080  0.3865
    6POPC   C2F  302   6.005   3.230   1.257 -0.0829 -0.2261  0.1625
    6POPC   C2G  303   6.055   3.308   1.379  0.4748  0.2940 -0.3887
    6POPC   C2H  304   6.057   3.211   1.498 -0.3988  0.0731 -0.5475
    6POPC   C2I  305   6.115   3.283   1.619 -0.6999  0.2845 -0.5266
    6POPC   C2J  306   6.126   3.201   1.747 -0.0780  0.9177 -0.1619
    6POPC   C2K  307   5.989   3.149   1.791  0.2575  0.2718  0.1413
    6POPC   C2L  308   6.013   3.053   1.908 -0.3751  0.3617  0.3531
    6POPC   C2M  309   5.882   2.990   1.954 -0.1721 -0.7761 -0.5967
    6POPC   C2N  310   5.920   2.912   2.080 -0.0613  0.3917  0.1061
    6POPC   C2O  311   5.800   2.843   2.146  0.1906 -0.3585 -0.2090
    6POPC   C2P  312   5.838   2.759   2.268  0.0408  0.1970  0.2256
    7POPC   CN1  313   5.384   2.750   0.398 -0.6622  0.7032  0.2775
    7POPC   CN2  314   5.208   2.609   0.365  0.0196  0.1999 -0.1463
    7POPC   CN3  315   5.360   2.585   0.557  0.3113  0.0185 -0.4650
    7POPC   NTM  316   5.347   2.609   0.412  0.1010  0.4313 -0.3792
    7POPC    CA  317   5.433   2.524   0.330 -0.1827  0.1880 -0.4275
    7POPC    CB  318   5.446   2.373   0.352 -0.8140  0.2356  0.2997
    7POPC    OA  319   5.324   2.301   0.371 -0.7290 -0.1495 -0.5521
    7POPC     P  320   5.370   2.148   0.394  0.3500  0.2905  0.3331
    7POPC    OB  321   5.473   2.159   0.499  0.3613  0.1957  0.3322
    7POPC    OC  322   5.412   2.110   0.257 -0.4521  0.6155 -0.0085
    7POPC    OD  323   5.226   2.089   0.434  0.1995  0.3861 -0.0630
    7POPC    CC  324   5.190   2.120   0.569 -0.0658  0.1192 -0.0703
    7POPC    CD  325   5.063   2.204   0.577 -0.2464 -0.1491 -0.1110
    7POPC    OE  326   5.041   2.266   0.704  0.2416  0.0703 -0.1323
    7POPC   C1A  327   4.946   2.359   0.711  0.4217  0.2318  0.2421
    7POPC    OF  328   4.895   2.404   0.608  0.2421 -0.2801  0.1059
    7POPC   C1B  329   4.920   2.402   0.850  0.0271  0.6775  0.0353
    7POPC   C1C  330   5.033   2.424   0.951  0.2234  0.2551 -0.0918
    7POPC   C1D  331   5.143   2.517   0.900  0.8057 -0.2544  0.2177
    7POPC   C1E  332   5.089   2.660   0.894  0.1785 -0.5068 -0.1763
    7POPC   C1F  333   5.088   2.724   1.032  0.5846 -0.0180 -0.3992
    7POPC   C1G  334   5.066   2.876   1.030  0.1728 -0.0646  0.1724
    7POPC   C1H  335   5.082   2.976   1.144  0.0605  0.2980 -0.1303
    7POPC   C1I  336   4.976   2.948   1.251 -0.0533 -0.0076 -0.3210
    7POPC   C1J  337   5.003   2.950   1.381  0.1287 -0.5085 -0.3496
    7POPC   C1K  338   5.149   2.967   1.425  0.0566  0.1816 -0.3752
    7POPC   C1L  339   5.179   2.896   1.557  0.4698  0.6347 -0.2202
    7POPC   C1M  340   5.092   2.936   1.676  0.5586  0.3162 -0.0464
    7POPC   C1N  341   5.147   2.888   1.810 -0.2932 -0.1232  0.1561
    7POPC   C1O  342   5.071   2.938   1.933 -0.3487 -0.0481  0.0912
    7POPC   C1P  343   5.115   2.865   2.060 -0.4380 -0.0968  0.0943
    7POPC   C1Q  344   5.010   2.902   2.166 -0.4701 -0.0828  0.0579
    7POPC   C1R  345   5.026   2.811   2.288  0.0208  0.1774  0.1915
    7POPC    CE  346   4.957   2.109   0.521 -0.0252 -0.2388 -0.3779
    7POPC    OG  347   4.951   1.988   0.597 -0.0531 -0.0346 -0.0517
    7POPC   C2A  348   4.847   1.905   0.586 -0.5766  0.5554  0.3653
    7POPC    OH  349   4.770   1.915   0.490 -0.0694 -0.2190 -0.1312
    7POPC   C2B  350   4.840   1.803   0.692 -0.5103  0.1507 -0.0168
    7POPC   C2C  351   4.769   1.838   0.823  0.6742 -0.1465  0.7293
    7POPC   C2D  352   4.622   1.879   0.809  0.7020 -0.1610  0.3788
    7POPC   C2E  353   4.565   1.924   0.944 -0.1976  0.0324 -0.0563
    7POPC   C2F  354   4.597   2.073   0.951  0.0335 -0.0078 -0.2299
    7POPC   C2G  355   4.575   2.127   1.093  0.2700  0.6169 -0.4258
    7POPC   C2H  356   4.673   2.088   1.204 -0.1886  0.2321 -0.1507
    7POPC   C2I  357   4.658   2.144   1.346 -0.4786  0.0625 -0.1142
    7POPC   C2J  358   4.704   2.038   1.447 -0.2291  0.1683 -0.1165
    7POPC   C2K  359   4.715   2.099   1.587 -0.6525  0.4425 -0.2023
    7POPC   C2L  360   4.578   2.140   1.642 -0.5238  0.8813 -0.2044
    7POPC   C2M  361   4.567   2.177   1.790  0.5044  0.1431  0.0686
    7POPC   C2N  362   4.573   2.058   1.887 -0.2866 -0.0828 -0.1502
    7POPC   C2O  363   4.576   2.134   2.020 -0.3376  0.2835 -0.3556
    7POPC   C2P  364   4.536   2.042   2.135  0.0629 -0.1510 -0.5576
    8POPC   CN1  365   1.359   4.640   0.056  0.0205  0.4238  0.0373
    8POPC   CN2  366   1.186   4.715   0.205 -0.0207  0.3090  0.3878
    8POPC   CN3  367   1.406   4.746   0.273 -0.2631  0.4981 -0.0465
    8POPC   NTM  368   1.320   4.654   0.197 -0.0677  0.2515  0.0302
    8POPC    CA  369   1.310   4.519   0.253 -0.0781  0.1498 -0.2156
    8POPC    CB  370   1.429   4.424   0.265 -0.0575  0.2074  0.0286
    8POPC    OA  371   1.539   4.464   0.348  0.1229  0.3226 -0.2662
    8POPC     P  372   1.658   4.357   0.363 -0.2705 -0.0771  0.0181
    8POPC    OB  373   1.786   4.408   0.418 -0.1775 -0.3338  0.0425
    8POPC    OC  374   1.664   4.265   0.247  0.2882 -0.1228  0.0830
    8POPC    OD  375   1.588   4.278   0.484  0.0277 -0.1742  0.1267
    8POPC    CC  376   1.591   4.353   0.606 -0.4434  0.0527 -0.0004
    8POPC    CD  377   1.605   4.266   0.732  0.3158  0.5730  0.2820
    8POPC    OE  378   1.573   4.344   0.847  0.0253  0.0545  0.5542
    8POPC   C1A  379   1.448   4.378   0.876 -0.1025 -0.3141  0.4391
    8POPC    OF  380   1.351   4.365   0.801 -0.0932 -0.1797  0.4041
    8POPC   C1B  381   1.430   4.424   1.015 -0.8329  0.0382  0.2379
    8POPC   C1C  382   1.290   4.469   1.056 -0.6517  0.3041  0.5747
    8POPC   C1D  383   1.278   4.508   1.204 -0.2452  0.2287  0.6291
    8POPC   C1E  384   1.144   4.576   1.232 -0.4031  0.4434 -0.5640
    8POPC   C1F  385   1.019   4.509   1.176 -0.5430  0.0362  0.2284
    8POPC   C1G  386   0.984   4.375   1.243  0.0378 -0.4247 -0.3808
    8POPC   C1H  387   0.916   4.402   1.377  0.2488  0.3495 -0.4227
    8POPC   C1I  388   0.877   4.263   1.427  0.3742  0.4511 -0.0338
    8POPC   C1J  389   0.914   4.215   1.545 -0.1538 -0.4490 -0.2211
    8POPC   C1K  390   0.976   4.297   1.659 -0.4908 -0.3947 -0.0759
    8POPC   C1L  391   0.910   4.261   1.793 -0.3747  0.2736  0.1625
    8POPC   C1M  392   0.953   4.356   1.905 -0.0506 -0.3381  0.5615
    8POPC   C1N  393   0.844   4.381   2.009 -0.2798  0.4096  0.1535
    8POPC   C1O  394   0.807   4.267   2.105  0.0555 -0.0420 -0.2489
    8POPC   C1P  395   0.705   4.311   2.210  0.0638 -0.4854 -0.0529
    8POPC   C1Q  396   0.684   4.206   2.319 -0.3928 -0.3463 -0.0039
    8POPC   C1R  397   0.584   4.263   2.420 -0.0360 -1.0101  0.7328
    8POPC    CE  398   1.751   4.221   0.728  0.0526 -0.2681 -0.1709
    8POPC    OG  399   1.848   4.326   0.727 -0.0335 -0.1830  0.2006
    8POPC   C2A  400   1.959   4.301   0.659 -0.0187 -0.1725  0.2208
    8POPC    OH  401   1.990   4.187   0.625 -0.0676 -0.1568  0.1248
    8POPC   C2B  402   2.056   4.413   0.651 -0.2193 -0.0208 -0.0601
    8POPC   C2C  403   2.089   4.480   0.785  0.6232 -0.1501 -0.1985
    8POPC   C2D  404   2.191   4.402   0.869  0.4147 -0.2396 -0.0259
    8POPC   C2E  405   2.229   4.477   0.997 -0.1456 -0.1849  0.1134
    8POPC   C2F  406   2.112   4.506   1.090 -0.2176 -0.0078 -0.0316
    8POPC   C2G  407   2.059   4.372   1.142  0.0260 -0.2466 -0.4024
    8POPC   C2H  408   1.928   4.371   1.219 -0.2129  0.4125 -0.7966
    8POPC   C2I  409   1.891   4.225   1.248  0.5511  0.2817 -0.4469
    8POPC   C2J  410   1.753   4.220   1.315  0.6512  0.2091 -0.2473
    8POPC   C2K  411   1.728   4.080   1.373 -0.1150  0.3157 -0.3090
    8POPC   C2L  412   1.795   4.056   1.508 -0.2331  0.1457 -0.2805
    8POPC   C2M  413   1.801   3.907   1.541  0.2605  0.0475 -0.8078
    8POPC   C2N  414   1.846   3.884   1.686 -0.4953  0.0629 -0.5697
    8POPC   C2O  415   1.725   3.931   1.767 -0.2023  0.4944 -0.3770
    8POPC   C2P  416   1.751   3.958   1.915  0.6174  0.5005 -0.5193
    9POPC   CN1  417   1.428   1.158   0.733  0.9542 -0.2711  0.5196
    9POPC   CN2  418   1.425   0.951   0.627  0.3331 -0.0598 -0.8913
    9POPC   CN3  419   1.620   1.069   0.621 -0.2015  0.4488  0.8967
    9POPC   NTM  420   1.475   1.088   0.613 -0.1806  0.1996 -0.2091
    9POPC    CA  421   1.454   1.162   0.488 -0.7335  0.5446  0.0807
    9POPC    CB  422   1.463   1.104   0.346  0.0344 -0.3178  0.4759
    9POPC    OA  423   1.371   1.000   0.313 -0.1043 -0.1022  0.1819
    9POPC     P  424   1.263   1.052   0.206  0.1634  0.3139  0.1096
    9POPC    OB  425   1.176   0.936   0.174 -0.5811  0.8139  0.2759
    9POPC    OC  426   1.323   1.144   0.107 -0.5077  1.0962  0.4166
    9POPC    OD  427   1.168   1.144   0.298 -0.1509  0.3329 -0.2300
    9POPC    CC  428   1.072   1.081   0.383  0.1621  0.1883  0.0172
    9POPC    CD  429   1.072   1.096   0.535 -0.4034 -0.0703  0.0431
    9POPC    OE  430   1.001   0.991   0.602 -0.1111 -0.3756 -0.1260
    9POPC   C1A  431   1.039   0.956   0.724 -0.0791 -0.0842 -0.0522
    9POPC    OF  432   1.149   0.995   0.763 -0.1150 -0.1882  0.1542
    9POPC   C1B  433   0.952   0.868   0.806  0.1854  0.1186  0.4497
    9POPC   C1C  434   1.025   0.756   0.879  0.1263 -0.0870  0.1941
    9POPC   C1D  435   0.936   0.646   0.937  0.2166 -0.3632 -0.1877
    9POPC   C1E  436   1.021   0.540   1.008  0.4542 -0.0948 -0.0697
    9POPC   C1F  437   1.096   0.606   1.124  0.3515 -0.0465 -0.0311
    9POPC   C1G  438   1.155   0.525   1.240  0.3700  0.4281  0.2952
    9POPC   C1H  439   1.197   0.610   1.360  0.1859  0.3428  0.4206
    9POPC   C1I  440   1.296   0.526   1.441 -0.5587 -0.3848  0.5969
    9POPC   C1J  441   1.388   0.580   1.520 -0.3667 -0.1301  0.2050
    9POPC   C1K  442   1.403   0.732   1.536  0.0370 -0.0988 -0.4206
    9POPC   C1L  443   1.554   0.753   1.552  0.0670 -0.6413  0.0656
    9POPC   C1M  444   1.585   0.903   1.549 -0.0180 -0.6023  0.9118
    9POPC   C1N  445   1.737   0.916   1.546 -0.0613 -0.3462 -0.8814
    9POPC   C1O  446   1.776   1.063   1.533  0.0767 -0.3291 -0.2750
    9POPC   C1P  447   1.914   1.091   1.473  0.0957 -0.0246 -0.0953
    9POPC   C1Q  448   1.964   1.230   1.512 -0.1201  0.0098  0.0586
    9POPC   C1R  449   2.117   1.230   1.518 -0.1072 -0.6647 -0.1585
    9POPC    CE  450   1.003   1.231   0.559 -0.0953  0.1241 -0.1633
    9POPC    OG  451   1.053   1.354   0.506 -0.3321  0.3901  0.2316
    9POPC   C2A  452   1.148   1.417   0.574  0.0032 -0.0428  0.1623
    9POPC    OH  453   1.210   1.353   0.659  0.2138  0.2401  0.2257
    9POPC   C2B  454   1.170   1.557   0.531  0.8390 -0.3175 -0.3299
    9POPC   C2C  455   1.203   1.646   0.651 -0.1560  0.1778 -0.4112
    9POPC   C2D  456   1.077   1.660   0.736  0.2178 -0.1491  0.2074
    9POPC   C2E  457   1.125   1.696   0.877  0.1063  0.3430  0.1221
    9POPC   C2F  458   1.011   1.690   0.978 -0.0198 -0.2742 -0.0525
    9POPC   C2G  459   1.076   1.715   1.114  0.0968 -0.4487 -0.0764
    9POPC   C2H  460   0.990   1.705   1.241  0.2376 -0.3967  0.0231
    9POPC   C2I  461   0.905   1.579   1.256  0.2964 -0.4345  0.0394
    9POPC   C2J  462   0.842   1.565   1.395 -0.2681  0.1994 -0.1467
    9POPC   C2K  463   0.786   1.423   1.409  0.0739  0.0622 -0.1527
    9POPC   C2L  464   0.903   1.330   1.444 -0.2175 -0.1950  0.1407
    9POPC   C2M  465   0.854   1.185   1.446  0.0576 -0.2904 -0.0771
    9POPC   C2N  466   0.968   1.090   1.484  0.0668 -0.1308  0.3028
    9POPC   C2O  467   0.943   0.942   1.456 -0.4109 -0.0549  0.3156
    9POPC   C2P  468   0.929   0.918   1.306 -0.6357  0.1678  0.3010
   10POPC   CN1  469   0.694   5.324   0.378 -0.0352 -0.9092  1.0293
   10POPC   CN2  470   0.920   5.290   0.448  0.3264  0.3474  0.1888
   10POPC   CN3  471   0.803   5.494   0.502  0.1043 -0.2485 -0.0475
   10POPC   NTM  472   0.824   5.390   0.400 -0.1610 -0.2563 -0.0934
   10POPC    CA  473   0.875   5.444   0.273  0.3445 -0.2441  0.1141
   10POPC    CB  474   1.014   5.506   0.266  0.0556  0.4589  0.5549
   10POPC    OA  475   1.040   5.633   0.327  0.4477  0.3911  0.5331
   10POPC     P  476   1.006   5.763   0.239  0.1091 -0.1193 -0.0958
   10POPC    OB  477   0.867   5.758   0.187 -0.2513 -0.1298  0.8420
   10POPC    OC  478   1.126   5.789   0.156  0.0179 -0.2452 -0.2694
   10POPC    OD  479   1.003   5.875   0.355 -0.0311 -0.3223  0.0985
   10POPC    CC  480   0.886   5.877   0.437 -0.0072 -0.6814  0.1450
   10POPC    CD  481   0.907   5.956   0.567 -0.0851 -0.0104 -0.2410
   10POPC    OE  482   0.815   5.924   0.672 -0.1719  0.1014 -0.2829
   10POPC   C1A  483   0.816   5.802   0.725  0.2855  0.3909  0.3936
   10POPC    OF  484   0.904   5.718   0.704 -0.7039 -0.5738  0.0266
   10POPC   C1B  485   0.688   5.772   0.792  0.3334 -0.4183  0.1293
   10POPC   C1C  486   0.701   5.802   0.941 -0.1744  0.6194 -0.0230
   10POPC   C1D  487   0.584   5.744   1.020  0.0371  0.2190  0.0023
   10POPC   C1E  488   0.608   5.731   1.171  0.3972  0.0360 -0.0694
   10POPC   C1F  489   0.663   5.858   1.236  0.8830 -0.1536 -0.1089
   10POPC   C1G  490   0.690   5.831   1.384 -0.0452  0.0992  0.1113
   10POPC   C1H  491   0.766   5.947   1.449  0.5039 -0.4224  0.4095
   10POPC   C1I  492   0.914   5.952   1.414  0.2390 -0.1801 -0.7152
   10POPC   C1J  493   1.008   6.007   1.491 -0.2479  0.5263 -0.6128
   10POPC   C1K  494   0.956   6.052   1.627  0.0387  0.5416 -0.5064
   10POPC   C1L  495   1.010   6.186   1.678 -0.0974  0.4001  0.0219
   10POPC   C1M  496   0.972   6.216   1.823 -0.3678  0.1309  0.0093
   10POPC   C1N  497   1.058   6.330   1.876  0.1124 -0.4000  0.3818
   10POPC   C1O  498   1.023   0.035   2.018  0.3925  0.1976  0.2663
   10POPC   C1P  499   1.106   0.159   2.054  0.3669  0.2273  0.2236
   10POPC   C1Q  500   1.029   0.212   2.175  0.3457  0.0160  0.3031
   10POPC   C1R  501   1.121   0.321   2.231  0.3797  0.1122  0.0613
   10POPC    CE  502   0.945   6.102   0.546  0.2525 -0.1223 -0.4097
   10POPC    OG  503   1.015   6.176   0.646 -0.1119  0.1914 -0.3813
   10POPC   C2A  504   1.140   6.133   0.663  0.1569  0.9793 -0.3612
   10POPC    OH  505   1.206   6.081   0.573 -0.0236  0.1621 -0.0259
   10POPC   C2B  506   1.197   6.165   0.796  0.4284 -0.3086 -0.1545
   10POPC   C2C  507   1.149   6.047   0.880  0.0085 -0.1035 -0.1030
   10POPC   C2D  508   1.153   6.063   1.032 -0.1566  0.3849 -0.1477
   10POPC   C2E  509   1.141   5.919   1.084 -0.1038  0.3756 -0.1611
   10POPC   C2F  510   1.247   5.811   1.065 -0.5245 -0.0887  0.1122
   10POPC   C2G  511   1.211   5.682   1.139 -0.0626 -0.1124  0.2976
   10POPC   C2H  512   1.224   5.703   1.290  0.4017 -0.0379  0.2494
   10POPC   C2I  513   1.179   5.588   1.381  0.8430 -0.1859  0.2815
   10POPC   C2J  514   1.199   5.625   1.528 -0.1512  0.0185  0.3711
   10POPC   C2K  515   1.138   5.512   1.612  0.1066 -0.1081  0.3871
   10POPC   C2L  516   1.131   5.558   1.758  0.2604 -0.0270  0.3698
   10POPC   C2M  517   1.078   5.439   1.837  0.3201 -0.1481  0.2266
   10POPC   C2N  518   1.054   5.450   1.988  0.3301 -0.5999  0.2649
   10POPC   C2O  519   0.990   5.332   2.061  0.0650 -0.4471  0.2832
   10POPC   C2P  520   0.999   5.334   2.214 -0.4668  0.6873  0.3076
   11POPC   CN1  521   1.203   3.396   5.950 -0.1506 -0.2813  0.0270
   11POPC   CN2  522   1.060   3.210   5.938 -0.1188  0.1652 -0.5510
   11POPC   CN3  523   1.052   3.374   5.767  0.4254  0.3338  0.0168
   11POPC   NTM  524   1.067   3.354   5.912 -0.3498  0.2967  0.0978
   11POPC    CA  525   0.961   3.422   5.986 -0.1318  0.3293  0.3818
   11POPC    CB  526   0.974   3.444   0.137 -0.1673 -0.0393  0.4386
   11POPC    OA  527   1.003   3.332   0.221  0.1711  0.0499  0.4397
   11POPC     P  528   0.866   3.268   0.274 -0.0205  0.1183  0.0318
   11POPC    OB  529   0.909   3.138   0.330  0.2272  0.1421 -0.1034
   11POPC    OC  530   0.766   3.278   0.165 -0.2195 -0.1468  0.1856
   11POPC    OD  531   0.843   3.382   0.386  0.5147 -0.1022  0.3682
   11POPC    CC  532   0.875   3.355   0.522 -0.5842 -0.0043  0.6476
   11POPC    CD  533   1.020   3.386   0.557 -0.3901 -0.1458 -0.0327
   11POPC    OE  534   1.056   3.362   0.693 -0.8571 -0.2289  0.0748
   11POPC   C1A  535   1.086   3.236   0.723  0.1972 -0.0465 -0.1997
   11POPC    OF  536   1.105   3.148   0.639 -0.2581  0.5260 -0.9113
   11POPC   C1B  537   1.123   3.212   0.865  0.2956  0.0490 -0.2091
   11POPC   C1C  538   1.275   3.194   0.865  0.2704 -0.1602  0.1135
   11POPC   C1D  539   1.326   3.170   1.007  0.1078  0.3085  0.2503
   11POPC   C1E  540   1.478   3.161   1.009  0.1032  0.2300  0.2640
   11POPC   C1F  541   1.541   3.116   1.141  0.7445  0.1701 -0.0583
   11POPC   C1G  542   1.545   2.964   1.159  0.2060  0.0982 -0.5096
   11POPC   C1H  543   1.586   2.913   1.298 -0.1279  0.4604 -0.2761
   11POPC   C1I  544   1.480   2.946   1.403 -0.4227 -0.2292 -0.3569
   11POPC   C1J  545   1.499   2.949   1.535 -0.4731  0.2703 -0.3603
   11POPC   C1K  546   1.626   2.895   1.602 -0.7533 -0.1441 -0.1575
   11POPC   C1L  547   1.602   2.886   1.752 -0.1594 -0.2311 -0.0675
   11POPC   C1M  548   1.571   3.016   1.827  0.2412 -0.1553 -0.0320
   11POPC   C1N  549   1.608   2.999   1.975 -0.2943  0.5616  0.1872
   11POPC   C1O  550   1.557   3.132   2.032 -0.2196  0.6214  0.1146
   11POPC   C1P  551   1.577   3.125   2.183 -0.6124  0.6948  0.1713
   11POPC   C1Q  552   1.507   3.017   2.265  0.4740 -0.1100  0.0664
   11POPC   C1R  553   1.535   3.052   2.411  0.6527 -0.1846  0.0497
   11POPC    CE  554   1.049   3.529   0.510 -0.2506 -0.0265  0.4140
   11POPC    OG  555   0.957   3.630   0.553  0.0230  0.3060  0.2163
   11POPC   C2A  556   1.011   3.744   0.595  0.3170 -0.0391  0.7875
   11POPC    OH  557   1.123   3.787   0.565 -0.1637  0.6778 -0.0290
   11POPC   C2B  558   0.913   3.822   0.674 -0.1373  0.7198 -0.4946
   11POPC   C2C  559   0.849   3.739   0.785  0.6856  0.4408 -0.2201
   11POPC   C2D  560   0.951   3.714   0.896  0.0747 -0.0960  0.2253
   11POPC   C2E  561   0.899   3.616   1.001 -0.1615 -0.1203  0.0867
   11POPC   C2F  562   1.015   3.573   1.091 -0.3223  0.2833  0.4912
   11POPC   C2G  563   0.973   3.477   1.203  0.0156 -0.2545  0.1599
   11POPC   C2H  564   1.099   3.411   1.257  0.3092  0.0039 -0.1996
   11POPC   C2I  565   1.049   3.317   1.367  0.0675  0.2655 -0.0874
   11POPC   C2J  566   1.165   3.265   1.453 -0.1746 -0.0772  0.0338
   11POPC   C2K  567   1.111   3.154   1.543 -0.0492 -0.0180  0.1831
   11POPC   C2L  568   1.094   3.206   1.686 -0.1843 -0.0172  0.1671
   11POPC   C2M  569   1.055   3.110   1.798  0.1848  0.1610  0.4505
   11POPC   C2N  570   1.149   2.990   1.808  0.0568  0.0151 -0.0748
   11POPC   C2O  571   1.168   2.942   1.952 -0.3126  0.0047 -0.0273
   11POPC   C2P  572   1.265   2.824   1.968  0.2480  0.4792  0.1051
   12POPC   CN1  573   0.130   1.401   0.282 -0.1877 -0.1353  0.3395
   12POPC   CN2  574   0.155   1.187   0.378  0.2538  0.4169 -0.1576
   12POPC   CN3  575   0.238   1.369   0.494  1.2194  0.0546  0.1731
   12POPC   NTM  576   0.222   1.316   0.357  0.4468  0.3628  0.1350
   12POPC    CA  577   0.349   1.298   0.285  0.0673 -0.5209 -0.3257
   12POPC    CB  578   0.453   1.407   0.307 -0.6833  0.2799 -0.7149
   12POPC    OA  579   0.422   1.543   0.273 -0.5207  0.5160  0.0781
   12POPC     P  580   0.542   1.641   0.317 -0.0552 -0.0667  0.1174
   12POPC    OB  581   0.627   1.653   0.197 -0.0020  0.1338  0.1752
   12POPC    OC  582   0.583   1.596   0.452  0.3356 -0.1006 -0.0097
   12POPC    OD  583   0.460   1.779   0.321 -0.3160 -0.2149 -0.1621
   12POPC    CC  584   0.386   1.772   0.443 -0.2109  0.0009 -0.0857
   12POPC    CD  585   0.249   1.838   0.455 -0.0450  0.2690  0.3525
   12POPC    OE  586   0.154   1.826   0.348  0.0210  0.3299  0.2868
   12POPC   C1A  587   0.056   1.739   0.372  0.0939  0.0320 -0.4697
   12POPC    OF  588   0.072   1.642   0.445  0.0159 -0.0779 -0.5995
   12POPC   C1B  589   6.247   1.763   0.287  0.0256  0.4078 -0.2713
   12POPC   C1C  590   6.119   1.805   0.360  0.5091  0.1666  0.7384
   12POPC   C1D  591   6.094   1.956   0.359  0.4120  0.1500  0.3534
   12POPC   C1E  592   6.163   2.029   0.475 -0.1490  0.7226  0.3337
   12POPC   C1F  593   6.133   1.961   0.608 -0.5331  0.4194  0.0979
   12POPC   C1G  594   6.254   1.962   0.703 -0.2967  0.0859 -0.1954
   12POPC   C1H  595   6.222   1.901   0.840  0.5376 -0.5564 -0.2804
   12POPC   C1I  596   0.031   1.910   0.936  0.3988  0.0837 -0.1619
   12POPC   C1J  597   0.007   1.926   1.066 -0.2306 -0.9438 -0.1417
   12POPC   C1K  598   6.173   1.924   1.115 -0.2686 -0.5542 -0.2324
   12POPC   C1L  599   6.186   1.898   1.265  0.1274  0.0638 -0.1576
   12POPC   C1M  600   6.063   1.853   1.345  0.2109  0.0768 -0.0219
   12POPC   C1N  601   6.086   1.838   1.496  0.3406 -0.0326 -0.0524
   12POPC   C1O  602   5.957   1.767   1.539  0.0359  0.7277  0.3054
   12POPC   C1P  603   5.955   1.753   1.691  0.4674  0.0999  0.2572
   12POPC   C1Q  604   5.813   1.710   1.727  0.4314  0.0154  0.0129
   12POPC   C1R  605   5.772   1.570   1.681  0.1619  0.1844 -0.2686
   12POPC    CE  606   0.280   1.987   0.473  0.4431  0.2345 -0.1632
   12POPC    OG  607   0.321   2.022   0.606 -0.1007 -0.1280  0.1045
   12POPC   C2A  608   0.399   2.129   0.619 -0.2836  0.0540 -0.2669
   12POPC    OH  609   0.457   2.180   0.524  0.5011  0.5648  0.4735
   12POPC   C2B  610   0.426   2.151   0.763  0.4456 -0.0094 -0.3891
   12POPC   C2C  611   0.444   2.299   0.796  0.0580 -0.0590  0.0544
   12POPC   C2D  612   0.494   2.311   0.940  0.5863  0.1930 -0.1486
   12POPC   C2E  613   0.478   2.458   0.979 -0.9003 -0.1533  0.6364
   12POPC   C2F  614   0.504   2.485   1.127 -0.3727 -0.7283  0.6529
   12POPC   C2G  615   0.462   2.632   1.141  0.8050 -0.3754  0.5630
   12POPC   C2H  616   0.475   2.685   1.284  0.1094  0.4373  0.3316
   12POPC   C2I  617   0.394   2.594   1.377 -0.3624  0.6661  0.1464
   12POPC   C2J  618   0.415   2.627   1.525  0.1473  0.4553  0.1227
   12POPC   C2K  619   0.328   2.536   1.612  0.0929  0.3289 -0.0610
   12POPC   C2L  620   0.254   2.618   1.718 -0.4009 -0.1306 -0.0472
   12POPC   C2M  621   0.353   2.659   1.827 -0.5373 -0.0434  0.0444
   12POPC   C2N  622   0.278   2.733   1.937 -0.3028  0.2595  0.0053
   12POPC   C2O  623   0.368   2.772   2.054 -0.1185  0.4616 -0.2038
   12POPC   C2P  624   0.417   2.645   2.125 -0.1568 -0.0580 -1.0940
   13POPC   CN1  625   1.727   2.167   0.464  0.7135  0.0152  0.6402
   13POPC   CN2  626   1.639   1.961   0.400  0.7224  0.2557  0.4599
   13POPC   CN3  627   1.885   2.015   0.411  0.2978  0.1649  0.1160
   13POPC   NTM  628   1.749   2.055   0.372  0.4200  0.4738 -0.0040
   13POPC    CA  629   1.745   2.102   0.233 -0.3035  0.2396 -0.0681
   13POPC    CB  630   1.664   2.039   0.119 -0.2625 -0.8025  0.4662
   13POPC    OA  631   1.525   2.029   0.152 -0.3980  0.4920  0.3442
   13POPC     P  632   1.437   1.980   0.026  0.0526  0.0387  0.2021
   13POPC    OB  633   1.454   1.834   0.043 -0.3270 -0.1044 -0.6059
   13POPC    OC  634   1.477   2.051   5.902  0.1589 -0.1050  0.1541
   13POPC    OD  635   1.290   2.030   0.067 -0.2882 -0.2864 -0.6159
   13POPC    CC  636   1.251   1.938   0.168  0.4194  0.4202  0.3133
   13POPC    CD  637   1.163   1.991   0.282 -0.1664  0.3553 -0.1048
   13POPC    OE  638   1.020   1.991   0.280 -0.1635 -0.1632 -0.8988
   13POPC   C1A  639   0.962   1.874   0.304 -0.2493  0.0749  0.1227
   13POPC    OF  640   1.024   1.768   0.299  0.1939  0.3425 -0.0861
   13POPC   C1B  641   0.816   1.882   0.328 -0.2855 -0.8016  0.2278
   13POPC   C1C  642   0.781   1.880   0.477  0.1373  0.1344  0.3490
   13POPC   C1D  643   0.822   2.015   0.535  0.6503  0.1011  0.0727
   13POPC   C1E  644   0.781   2.022   0.683  0.0016  0.4954 -0.1210
   13POPC   C1F  645   0.850   2.132   0.764 -0.2499  0.4659  0.1349
   13POPC   C1G  646   0.815   2.115   0.912  0.1698 -0.0532  0.1791
   13POPC   C1H  647   0.853   2.216   1.020  0.2248 -0.2564  0.3510
   13POPC   C1I  648   0.999   2.261   1.018  0.0912  0.1586 -0.2506
   13POPC   C1J  649   1.054   2.266   1.139 -0.4387 -0.4747  0.0243
   13POPC   C1K  650   0.968   2.232   1.261 -0.0353 -0.4568  0.3133
   13POPC   C1L  651   1.052   2.163   1.369  0.5149 -0.1536  0.0834
   13POPC   C1M  652   0.962   2.096   1.473  0.2794  0.5830  0.3579
   13POPC   C1N  653   0.851   2.189   1.521 -0.4684  0.1170 -0.4402
   13POPC   C1O  654   0.791   2.131   1.649  0.2342  0.0661 -0.1329
   13POPC   C1P  655   0.689   2.222   1.717  0.3217 -0.2899  0.4867
   13POPC   C1Q  656   0.607   2.141   1.817 -0.6617 -0.2021 -0.2376
   13POPC   C1R  657   0.528   2.233   1.911  0.3649  0.2287  0.2130
   13POPC    CE  658   1.214   2.128   0.329  0.4445  0.0153  0.2294
   13POPC    OG  659   1.188   2.156   0.467 -0.5366 -0.3798  0.1363
   13POPC   C2A  660   1.287   2.127   0.551 -0.4056  0.0096  0.1181
   13POPC    OH  661   1.395   2.087   0.507 -0.1698  0.1046  0.6027
   13POPC   C2B  662   1.261   2.134   0.696  0.1761 -0.3026  0.2431
   13POPC   C2C  663   1.359   2.049   0.777  0.3822  0.1455  0.4675
   13POPC   C2D  664   1.346   2.080   0.927  0.0388  0.2962  0.4084
   13POPC   C2E  665   1.396   1.963   1.013 -0.3229  0.1627  0.4407
   13POPC   C2F  666   1.388   1.985   1.164 -0.5082  0.3172  0.4096
   13POPC   C2G  667   1.389   1.854   1.244 -0.0608  0.3060  0.3893
   13POPC   C2H  668   1.376   1.883   1.394  0.2234 -1.0387  0.6843
   13POPC   C2I  669   1.503   1.940   1.458  0.2113  0.0899 -0.2475
   13POPC   C2J  670   1.477   1.952   1.609 -0.3897  0.0451 -0.3462
   13POPC   C2K  671   1.401   2.083   1.632 -0.4089 -0.0796  0.2972
   13POPC   C2L  672   1.333   2.083   1.769  0.1606 -0.0778  0.5834
   13POPC   C2M  673   1.243   2.206   1.787  0.4304  0.2957 -0.5722
   13POPC   C2N  674   1.247   2.221   1.939 -0.4322 -0.2577 -0.4840
   13POPC   C2O  675   1.136   2.316   1.985 -0.1814 -0.2952  0.2137
   13POPC   C2P  676   1.155   2.360   2.130  0.2927  0.0358  0.0525
   14POPC   CN1  677   5.294   3.966   5.555  0.6800  0.1045  0.1128
   14POPC   CN2  678   5.229   3.777   5.683 -0.2427 -0.1542 -0.4307
   14POPC   CN3  679   5.430   3.889   5.731  0.1129 -0.2021  0.2976
   14POPC   NTM  680   5.344   3.845   5.620  0.0848 -0.0617  0.2633
   14POPC    CA  681   5.421   3.765   5.524 -0.4201 -0.2232 -0.0086
   14POPC    CB  682   5.463   3.621   5.554  0.2280 -0.1056 -0.3392
   14POPC    OA  683   5.466   3.599   5.695 -0.5424 -0.1268 -0.3223
   14POPC     P  684   5.469   3.439   5.717 -0.0618 -0.0697  0.0557
   14POPC    OB  685   5.612   3.407   5.693 -0.2093 -0.4330 -0.3480
   14POPC    OC  686   5.348   3.380   5.656 -0.2885  0.2555  0.1841
   14POPC    OD  687   5.431   3.451   5.873  0.1647  0.0688  0.1004
   14POPC    CC  688   5.305   3.506   5.914 -0.1570 -0.4556 -0.1865
   14POPC    CD  689   5.288   3.534   0.063  0.0119 -0.5053 -0.1576
   14POPC    OE  690   5.364   3.645   0.113 -1.1202 -0.1463  0.8287
   14POPC   C1A  691   5.327   3.769   0.083  0.5602  0.1340 -0.2488
   14POPC    OF  692   5.276   3.791   5.974 -0.1043  0.4025  0.1087
   14POPC   C1B  693   5.370   3.857   0.194 -0.1622  0.1185  0.0496
   14POPC   C1C  694   5.283   3.983   0.205 -0.6739 -0.2458  0.1805
   14POPC   C1D  695   5.291   4.039   0.347 -0.1017 -0.5342  0.2663
   14POPC   C1E  696   5.178   4.142   0.343  0.2133 -0.2080 -0.3285
   14POPC   C1F  697   5.111   4.174   0.477 -0.6089 -0.3008 -0.7108
   14POPC   C1G  698   5.053   4.055   0.555  0.3478 -0.7904 -0.7235
   14POPC   C1H  699   4.976   4.095   0.681  0.6106 -0.4340 -0.6747
   14POPC   C1I  700   4.879   3.983   0.719  0.0338  0.1824 -0.3024
   14POPC   C1J  701   4.905   3.947   0.844  0.6580 -0.0925 -0.5051
   14POPC   C1K  702   5.014   4.024   0.919  0.0829  0.4893 -0.2602
   14POPC   C1L  703   5.023   3.993   1.068  0.2626  0.2309 -0.3251
   14POPC   C1M  704   5.146   4.059   1.132  0.2067  0.0216  0.0036
   14POPC   C1N  705   5.148   4.035   1.283  0.3827 -0.1336 -0.0227
   14POPC   C1O  706   5.280   4.086   1.339  0.3731  0.0801 -0.1958
   14POPC   C1P  707   5.294   4.047   1.486 -0.3297 -0.3969 -0.2562
   14POPC   C1Q  708   5.180   4.103   1.572  0.3637  0.5523  0.0596
   14POPC   C1R  709   5.190   4.079   1.723  0.0202 -0.2065 -0.0297
   14POPC    CE  710   5.320   3.398   0.124  0.2157 -0.5218 -0.3015
   14POPC    OG  711   5.299   3.386   0.265  0.1971 -0.3905 -0.2928
   14POPC   C2A  712   5.398   3.427   0.343  0.0163  0.1703 -0.3588
   14POPC    OH  713   5.510   3.412   0.296  0.4099 -0.3856  0.7234
   14POPC   C2B  714   5.359   3.428   0.486  0.0852 -0.3427 -0.3345
   14POPC   C2C  715   5.485   3.426   0.572 -0.2762 -0.6221  0.1932
   14POPC   C2D  716   5.456   3.376   0.713  0.7026 -1.0809  0.2421
   14POPC   C2E  717   5.396   3.235   0.713  0.0491 -0.8070  0.2190
   14POPC   C2F  718   5.386   3.173   0.852 -0.1857  0.1897  0.6562
   14POPC   C2G  719   5.522   3.148   0.918  0.0571  0.2227  0.1717
   14POPC   C2H  720   5.474   3.095   1.053 -0.4014 -0.3258 -0.2006
   14POPC   C2I  721   5.593   3.054   1.142 -0.3350  0.1740 -0.0571
   14POPC   C2J  722   5.553   3.044   1.289  0.1728 -0.4239  0.0417
   14POPC   C2K  723   5.676   3.050   1.380 -0.1992  0.3914  0.5071
   14POPC   C2L  724   5.656   2.979   1.515 -0.6022  0.0816  0.2863
   14POPC   C2M  725   5.535   3.031   1.594 -0.6221  0.6523 -0.1050
   14POPC   C2N  726   5.529   2.978   1.738 -0.9504 -0.4559 -0.5183
   14POPC   C2O  727   5.525   3.088   1.844  0.0782 -0.8387 -0.0726
   14POPC   C2P  728   5.503   3.041   1.988 -0.4614 -0.2705  0.0328
   15POPC   CN1  729   0.237   3.419   0.013  0.2647  0.4752  0.3035
   15POPC   CN2  730   0.255   3.328   0.241  0.0691 -0.4995 -0.2633
   15POPC   CN3  731   0.252   3.561   0.200 -0.2711  0.3777 -0.5743
   15POPC   NTM  732   0.297   3.432   0.146  0.1199  0.0964  0.4066
   15POPC    CA  733   0.443   3.424   0.130  0.0910 -0.5459  0.4445
   15POPC    CB  734   0.543   3.504   0.046 -0.0454 -0.2429  0.5719
   15POPC    OA  735   0.548   3.644   0.074 -0.2893  0.0550 -0.7935
   15POPC     P  736   0.688   3.717   0.041  0.0331 -0.1189  0.1410
   15POPC    OB  737   0.646   3.858   0.026  0.8693  0.0673 -0.5319
   15POPC    OC  738   0.748   3.642   5.927 -0.4566  0.5661 -0.5794
   15POPC    OD  739   0.748   3.678   0.185  0.6042 -0.0773 -0.0866
   15POPC    CC  740   0.727   3.774   0.289 -0.1305 -0.2773 -0.0462
   15POPC    CD  741   0.602   3.762   0.376  0.1457 -0.2768  0.3550
   15POPC    OE  742   0.582   3.867   0.472 -0.1734  0.0035 -0.0140
   15POPC   C1A  743   0.458   3.902   0.501 -0.1909 -0.2076  0.1735
   15POPC    OF  744   0.379   3.916   0.407  0.3083  0.4309 -0.1613
   15POPC   C1B  745   0.447   3.970   0.632 -0.5805  0.3060 -0.1179
   15POPC   C1C  746   0.397   3.874   0.740  0.2258 -0.2559 -0.2388
   15POPC   C1D  747   0.389   3.949   0.873 -0.1776  0.1147 -0.4728
   15POPC   C1E  748   0.296   3.877   0.971 -0.0440  0.2669 -0.2320
   15POPC   C1F  749   0.291   3.946   1.107 -0.0782  0.0544 -0.1257
   15POPC   C1G  750   0.177   3.889   1.191 -0.3444  1.1450  0.2669
   15POPC   C1H  751   0.184   3.937   1.336  0.0472  0.0985  0.6052
   15POPC   C1I  752   0.106   4.063   1.374 -0.7370 -0.0805 -0.3661
   15POPC   C1J  753   0.148   4.131   1.481 -0.1883 -0.1816 -0.5162
   15POPC   C1K  754   0.255   4.074   1.574 -0.4933  0.3359  0.1576
   15POPC   C1L  755   0.298   4.188   1.667  0.2977  0.1944 -0.0269
   15POPC   C1M  756   0.382   4.119   1.775 -0.1718 -0.0384  0.1928
   15POPC   C1N  757   0.527   4.087   1.738 -0.0834  0.0796  0.4381
   15POPC   C1O  758   0.598   4.010   1.850  0.4086 -0.2502 -0.0984
   15POPC   C1P  759   0.530   3.880   1.892 -0.4989  0.4190  0.5317
   15POPC   C1Q  760   0.589   3.833   2.025  0.0209 -0.5006 -0.0120
   15POPC   C1R  761   0.733   3.781   2.018  0.0348 -0.5954  0.8036
   15POPC    CE  762   0.644   3.636   0.453  0.0347 -0.5874 -0.0895
   15POPC    OG  763   0.564   3.603   0.567 -0.2272 -0.1439 -0.1416
   15POPC   C2A  764   0.467   3.513   0.559 -0.1786 -0.1724 -0.4261
   15POPC    OH  765   0.461   3.437   0.463 -0.5867  0.3960 -0.8606
   15POPC   C2B  766   0.392   3.499   0.686  0.4277  0.1070 -0.0281
   15POPC   C2C  767   0.427   3.386   0.783  0.6343  0.1036 -0.1065
   15POPC   C2D  768   0.567   3.408   0.842  0.5129  0.0083  0.2220
   15POPC   C2E  769   0.595   3.288   0.932 -0.0331  0.0019  0.3841
   15POPC   C2F  770   0.745   3.263   0.944  0.0161  0.3508  0.5215
   15POPC   C2G  771   0.781   3.136   1.021  0.3995  0.0873 -0.0796
   15POPC   C2H  772   0.774   3.161   1.172 -0.0235  0.0384 -0.0911
   15POPC   C2I  773   0.766   3.027   1.246 -0.1746 -0.0206 -0.2132
   15POPC   C2J  774   0.758   3.041   1.398 -0.0645  0.7570 -0.2737
   15POPC   C2K  775   0.748   2.904   1.465 -0.4577  0.7927 -0.2553
   15POPC   C2L  776   0.762   2.920   1.617  0.3559 -0.0586 -0.2277
   15POPC   C2M  777   0.783   2.784   1.683  0.1552  0.1420  0.2558
   15POPC   C2N  778   0.763   2.798   1.834 -0.5476  0.0162  0.1771
   15POPC   C2O  779   0.784   2.670   1.915 -0.4280 -0.2599 -0.2836
   15POPC   C2P  780   0.706   2.550   1.862 -0.7932 -0.0960 -0.1157
   16POPC   CN1  781   4.433   5.408   0.427  0.4377 -0.0540  0.3332
   16POPC   CN2  782   4.430   5.499   0.214  0.3708  0.0583 -0.1633
   16POPC   CN3  783   4.401   5.266   0.228 -0.5023 -0.1564  0.1967
   16POPC   NTM  784   4.472   5.379   0.288 -0.4909 -0.1014  0.0797
   16POPC    CA  785   4.614   5.346   0.271 -0.5144 -0.1636  0.0030
   16POPC    CB  786   4.719   5.455   0.296 -0.4998 -0.2712  0.4104
   16POPC    OA  787   4.722   5.532   0.417  0.0436  0.2398  0.0754
   16POPC     P  788   4.785   5.466   0.550  0.0229  0.5087  0.2192
   16POPC    OB  789   4.902   5.543   0.596  0.2311  0.3835 -0.0924
   16POPC    OC  790   4.816   5.324   0.520  0.1752  0.4366  0.7088
   16POPC    OD  791   4.654   5.469   0.644 -0.1558 -0.6300  0.0266
   16POPC    CC  792   4.654   5.581   0.733 -0.2150 -0.0145 -0.7343
   16POPC    CD  793   4.516   5.623   0.783 -0.0776 -0.2926 -0.1083
   16POPC    OE  794   4.532   5.749   0.847 -0.2837 -0.3393  0.0374
   16POPC   C1A  795   4.544   5.863   0.779 -0.4443 -0.2285  0.1925
   16POPC    OF  796   4.522   5.871   0.658  0.4533 -0.3522  0.0139
   16POPC   C1B  797   4.589   5.971   0.869  0.4472 -0.2303 -0.2372
   16POPC   C1C  798   4.624   6.102   0.799  0.2136  0.0720  0.2009
   16POPC   C1D  799   4.667   6.199   0.909  0.7033  0.0783  0.0095
   16POPC   C1E  800   4.684   0.005   0.869  0.0342  0.0442 -0.4146
   16POPC   C1F  801   4.557   0.089   0.850 -0.2930 -0.4517 -0.4194
   16POPC   C1G  802   4.464   0.100   0.971  0.3345  0.1575  0.0099
   16POPC   C1H  803   4.356   0.207   0.956  0.3075  0.0721 -0.4046
   16POPC   C1I  804   4.426   0.342   0.975  0.0875  0.1647 -0.2427
   16POPC   C1J  805   4.372   0.423   1.065 -0.2470 -0.2837 -0.0331
   16POPC   C1K  806   4.249   0.384   1.146 -0.1905 -0.6379 -0.1183
   16POPC   C1L  807   4.174   0.511   1.186 -0.0078 -0.4551 -0.3528
   16POPC   C1M  808   4.066   0.488   1.292  0.2410  0.2077  0.0556
   16POPC   C1N  809   3.998   0.621   1.326 -0.0049  0.1681 -0.2686
   16POPC   C1O  810   3.857   0.614   1.385  0.2718 -0.5364  0.3398
   16POPC   C1P  811   3.856   0.603   1.537  0.2084  0.2533  0.4020
   16POPC   C1Q  812   3.715   0.616   1.597 -0.0998 -0.2212 -0.2111
   16POPC   C1R  813   3.719   0.574   1.744  0.4932  0.1575 -0.1176
   16POPC    CE  814   4.455   5.514   0.871  0.4457 -0.1448  0.4397
   16POPC    OG  815   4.545   5.465   0.970  0.1900 -0.1597  0.6683
   16POPC   C2A  816   4.486   5.413   1.077  0.1210 -0.2783  0.5730
   16POPC    OH  817   4.373   5.365   1.067 -0.0410  0.1853  0.1352
   16POPC   C2B  818   4.564   5.420   1.203  0.7405  0.2831  0.1607
   16POPC   C2C  819   4.639   5.289   1.227  0.0436 -0.0402  0.6118
   16POPC   C2D  820   4.693   5.291   1.370 -0.1851 -0.2298  0.7015
   16POPC   C2E  821   4.798   5.179   1.369  0.1614  0.0892 -0.1173
   16POPC   C2F  822   4.750   5.034   1.361 -0.3130  0.2429 -0.1183
   16POPC   C2G  823   4.656   4.981   1.469  0.1993 -0.5271 -0.0399
   16POPC   C2H  824   4.612   4.842   1.423  0.4420 -0.5879 -0.0910
   16POPC   C2I  825   4.505   4.782   1.515  0.1918 -0.4216 -0.2711
   16POPC   C2J  826   4.569   4.726   1.642  0.0275 -0.0115 -0.0046
   16POPC   C2K  827   4.473   4.621   1.699  0.1446 -0.2559 -0.2515
   16POPC   C2L  828   4.517   4.583   1.841 -0.0499 -0.0708 -0.1401
   16POPC   C2M  829   4.427   4.487   1.918 -0.3236  0.1902 -0.1337
   16POPC   C2N  830   4.489   4.459   2.055 -0.8718  0.7315  0.2286
   16POPC   C2O  831   4.397   4.376   2.145  0.1781 -0.5392  0.1586
   16POPC   C2P  832   4.456   4.336   2.280  0.2208 -0.0687  0.2795
   17POPC   CN1  833   5.332   0.162   0.078 -0.0116  0.0555 -0.8788
   17POPC   CN2  834   5.240   0.364   0.163  0.7125  0.4448  0.3135
   17POPC   CN3  835   5.464   0.359   0.068 -0.0826  0.0775 -0.4404
   17POPC   NTM  836   5.364   0.287   0.148  0.1994 -0.2669 -0.3994
   17POPC    CA  837   5.416   0.256   0.282 -0.1036 -0.2780 -0.2832
   17POPC    CB  838   5.536   0.164   0.309  0.1869  0.1146 -0.2192
   17POPC    OA  839   5.653   0.200   0.235  0.5123  0.0462  0.2600
   17POPC     P  840   5.729   0.065   0.194 -0.2144 -0.3103  0.0754
   17POPC    OB  841   5.842   0.100   0.105 -0.3476 -0.2892 -0.0846
   17POPC    OC  842   5.625   6.311   0.146 -0.8000  0.5038 -0.2780
   17POPC    OD  843   5.789   0.025   0.338  0.1649 -0.8779 -0.2327
   17POPC    CC  844   5.887   0.115   0.390 -0.2904 -0.6653  0.2703
   17POPC    CD  845   5.898   0.096   0.541  0.0883 -0.1394  0.3133
   17POPC    OE  846   5.928   0.214   0.617 -0.1386 -0.0983  0.3417
   17POPC   C1A  847   5.832   0.296   0.657  0.0064  0.2195  0.0483
   17POPC    OF  848   5.723   0.298   0.599 -0.1020 -0.2488  0.2320
   17POPC   C1B  849   5.880   0.382   0.768  0.0146  0.2027  0.0577
   17POPC   C1C  850   5.769   0.394   0.872  0.2896 -0.2495  0.4055
   17POPC   C1D  851   5.768   0.520   0.959  0.0061  0.2170 -0.2706
   17POPC   C1E  852   5.660   0.538   1.066 -0.0781 -0.2674 -0.2720
   17POPC   C1F  853   5.688   0.667   1.143 -0.0577  0.0178 -0.7517
   17POPC   C1G  854   5.654   0.798   1.071  0.4202  0.3738 -0.3406
   17POPC   C1H  855   5.665   0.920   1.162 -0.0578 -0.0755  0.3271
   17POPC   C1I  856   5.608   1.049   1.104 -0.0396 -0.2069  0.0182
   17POPC   C1J  857   5.555   1.149   1.173  0.2927 -0.0175  0.0015
   17POPC   C1K  858   5.527   1.122   1.321  0.2519  0.1352  0.0222
   17POPC   C1L  859   5.536   1.259   1.389  0.1821  0.3961 -0.4936
   17POPC   C1M  860   5.480   1.252   1.531 -0.1350 -0.3980 -0.6476
   17POPC   C1N  861   5.555   1.154   1.621  0.3415  0.1435 -0.4463
   17POPC   C1O  862   5.683   1.207   1.687  0.2722 -0.1378 -0.0805
   17POPC   C1P  863   5.774   1.091   1.727 -0.0303 -0.4029 -0.1532
   17POPC   C1Q  864   5.752   1.014   1.858  0.2423 -0.0129  0.1263
   17POPC   C1R  865   5.775   1.092   1.987 -0.7060  0.3092  0.1091
   17POPC    CE  866   5.994   6.319   0.560 -0.1737 -0.4204 -0.0955
   17POPC    OG  867   5.995   6.250   0.686 -0.1126 -0.0823  0.0894
   17POPC   C2A  868   6.049   6.129   0.678 -0.5228 -0.2134 -0.9685
   17POPC    OH  869   6.152   6.111   0.614  0.1466 -0.1717  0.0682
   17POPC   C2B  870   6.007   6.042   0.791  0.4302  0.6360  0.0659
   17POPC   C2C  871   5.962   6.110   0.920 -0.8278 -0.1819  0.0743
   17POPC   C2D  872   5.954   6.002   1.029  0.5329 -0.1901  0.1822
   17POPC   C2E  873   5.874   6.054   1.149  0.2363 -0.1037 -0.0507
   17POPC   C2F  874   5.919   5.953   1.255  0.0097  0.1611  0.2957
   17POPC   C2G  875   5.829   5.986   1.375 -0.6211  0.1458 -0.1673
   17POPC   C2H  876   5.863   5.883   1.484  0.4097  0.3070 -0.3241
   17POPC   C2I  877   5.786   5.939   1.604  0.3687  0.0559 -0.2344
   17POPC   C2J  878   5.783   5.842   1.723 -0.9734  0.5146  0.1236
   17POPC   C2K  879   5.662   5.749   1.718 -0.5551 -0.0369  0.1142
   17POPC   C2L  880   5.528   5.814   1.756 -0.4172  0.5742 -0.4343
   17POPC   C2M  881   5.419   5.707   1.757  0.2332 -0.0908  0.1887
   17POPC   C2N  882   5.273   5.753   1.753  0.1055 -0.5153 -0.1245
   17POPC   C2O  883   5.227   5.853   1.859 -0.7327 -0.3608 -0.6338
   17POPC   C2P  884   5.261   5.811   2.002 -0.4786  0.5478 -0.4223
   18POPC   CN1  885   3.263   5.300   0.252  0.4923  0.8253 -0.0270
   18POPC   CN2  886   3.336   5.240   0.023  0.1481 -0.3301  0.0036
   18POPC   CN3  887   3.214   5.432   0.064  0.2529 -0.2671  0.2789
   18POPC   NTM  888   3.229   5.293   0.109  0.2131 -0.3334  0.0869
   18POPC    CA  889   3.103   5.230   0.069 -0.1463  0.3363  0.1450
   18POPC    CB  890   3.048   5.100   0.129  0.1440 -0.0425 -0.3993
   18POPC    OA  891   3.052   5.091   0.272  0.4352 -0.1746 -0.4152
   18POPC     P  892   2.996   4.954   0.336  0.3058  0.0185 -0.1142
   18POPC    OB  893   2.892   4.902   0.244  0.0071  0.1661  0.1372
   18POPC    OC  894   2.968   4.984   0.478  0.2035 -0.1402 -0.1011
   18POPC    OD  895   3.133   4.871   0.322  0.3418  0.0012  0.3495
   18POPC    CC  896   3.199   4.853   0.448  0.6446 -0.0112  0.1888
   18POPC    CD  897   3.328   4.933   0.467  0.4913  0.2739  0.0408
   18POPC    OE  898   3.443   4.882   0.398 -0.0780 -0.4729 -0.3712
   18POPC   C1A  899   3.535   4.969   0.360 -0.2472  0.0901  0.4678
   18POPC    OF  900   3.505   5.088   0.364 -0.0102  0.1711  0.0047
   18POPC   C1B  901   3.670   4.923   0.320 -0.4070 -0.2452  0.3119
   18POPC   C1C  902   3.773   4.889   0.428  0.0620  0.4561  0.0946
   18POPC   C1D  903   3.722   4.781   0.524 -0.0559  0.0685 -0.4033
   18POPC   C1E  904   3.826   4.768   0.635 -0.4105 -0.2802 -0.1121
   18POPC   C1F  905   3.782   4.701   0.766 -0.1483  0.3497  0.3042
   18POPC   C1G  906   3.678   4.787   0.838 -0.0581  0.4328  0.3357
   18POPC   C1H  907   3.614   4.720   0.959 -0.2927 -0.1737 -0.1216
   18POPC   C1I  908   3.485   4.793   0.995 -0.2245  0.0901 -0.4125
   18POPC   C1J  909   3.454   4.791   1.125  0.2910 -0.0258 -0.2903
   18POPC   C1K  910   3.548   4.726   1.226  0.3866  0.6107  0.0370
   18POPC   C1L  911   3.501   4.728   1.372  0.4098 -0.1873  0.0648
   18POPC   C1M  912   3.388   4.625   1.381  0.5044 -0.3092 -0.1275
   18POPC   C1N  913   3.365   4.590   1.528 -0.3424  0.5704 -0.0365
   18POPC   C1O  914   3.224   4.599   1.588 -0.1557  0.2989  0.4578
   18POPC   C1P  915   3.228   4.549   1.732  0.0272 -0.4190  0.2097
   18POPC   C1Q  916   3.098   4.549   1.812  0.1253 -0.1375  0.3724
   18POPC   C1R  917   3.100   4.658   1.920 -0.6984  0.1795  0.0766
   18POPC    CE  918   3.354   4.945   0.618  0.6336  0.4550  0.0025
   18POPC    OG  919   3.238   4.976   0.695  0.3581 -0.5479  0.0156
   18POPC   C2A  920   3.219   5.108   0.703  0.1815 -0.5919  0.3240
   18POPC    OH  921   3.308   5.190   0.683 -0.3788 -0.1979 -0.6338
   18POPC   C2B  922   3.082   5.151   0.738  0.0672 -0.5557 -0.1677
   18POPC   C2C  923   3.045   5.132   0.885  0.2361  0.4713  0.0199
   18POPC   C2D  924   2.998   4.990   0.920 -0.3318  0.6143 -0.1495
   18POPC   C2E  925   2.949   4.981   1.065 -0.0625  0.0730 -0.0887
   18POPC   C2F  926   3.060   4.928   1.156  0.2660  0.5459 -0.2065
   18POPC   C2G  927   3.022   4.926   1.304  0.3767  0.5280 -0.1782
   18POPC   C2H  928   2.972   5.060   1.359 -0.2711  0.1522  0.1610
   18POPC   C2I  929   3.093   5.150   1.387 -0.4233  0.5619 -0.4957
   18POPC   C2J  930   3.036   5.277   1.451 -0.6712  0.0887  0.2382
   18POPC   C2K  931   3.149   5.376   1.481 -0.3846 -0.3341  0.5664
   18POPC   C2L  932   3.243   5.340   1.596 -0.2384 -0.4479  0.4122
   18POPC   C2M  933   3.208   5.399   1.733 -0.2135  0.6233 -0.0309
   18POPC   C2N  934   3.324   5.378   1.830 -0.2791 -0.9932 -0.2703
   18POPC   C2O  935   3.282   5.418   1.972  0.2778  0.3852 -0.4830
   18POPC   C2P  936   3.193   5.320   2.048  0.2408  0.0991 -0.8944
   19POPC   CN1  937   3.106   6.083   0.338 -0.0377 -0.0143  0.2941
   19POPC   CN2  938   3.012   6.085   0.111 -0.3512  0.5747 -0.2265
   19POPC   CN3  939   2.875   6.090   0.302  0.1390 -0.1902  0.0802
   19POPC   NTM  940   3.000   6.034   0.248  0.2485  0.3636 -0.2533
   19POPC    CA  941   2.970   5.890   0.246  0.2935  0.3637 -0.8925
   19POPC    CB  942   3.078   5.797   0.190  0.1561 -0.1329 -0.3343
   19POPC    OA  943   3.193   5.777   0.273  0.1348 -0.3287 -0.3518
   19POPC     P  944   3.180   5.663   0.387  0.0251 -0.1464 -0.1796
   19POPC    OB  945   3.318   5.612   0.396  0.1064 -0.0000 -0.5680
   19POPC    OC  946   3.066   5.570   0.366  0.5651 -0.9777  0.5309
   19POPC    OD  947   3.153   5.770   0.504 -0.0458 -0.2466 -0.1045
   19POPC    CC  948   3.278   5.824   0.548 -0.0389 -0.4224  0.0973
   19POPC    CD  949   3.262   5.937   0.650  0.0797 -0.3820  0.0711
   19POPC    OE  950   3.359   6.042   0.658 -0.7264  0.4212 -0.4062
   19POPC   C1A  951   3.387   6.132   0.564 -0.0016  0.0655 -0.5361
   19POPC    OF  952   3.401   6.103   0.445  0.1339  0.3691 -0.5960
   19POPC   C1B  953   3.457   6.249   0.622  0.2741 -0.1528 -0.4231
   19POPC   C1C  954   3.357   0.017   0.663  0.4293  0.0108 -0.4769
   19POPC   C1D  955   3.408   0.152   0.716  0.1803  0.0723 -0.3922
   19POPC   C1E  956   3.297   0.234   0.782  0.3822  0.1026 -0.0883
   19POPC   C1F  957   3.296   0.202   0.931  0.7279 -0.2569 -0.1616
   19POPC   C1G  958   3.408   0.278   1.002 -0.3307  0.8386  0.3588
   19POPC   C1H  959   3.398   0.258   1.154 -0.5156  0.8545  0.3498
   19POPC   C1I  960   3.504   0.351   1.212  0.1112  0.2836  0.1391
   19POPC   C1J  961   3.509   0.376   1.343 -0.0243  0.2889  0.1436
   19POPC   C1K  962   3.415   0.296   1.432 -0.2946  0.4257 -0.0181
   19POPC   C1L  963   3.459   0.318   1.577  0.6262 -0.0208 -0.2272
   19POPC   C1M  964   3.352   0.260   1.669  0.3698 -0.1598 -0.6116
   19POPC   C1N  965   3.390   0.116   1.706 -0.7248 -0.3723 -0.2572
   19POPC   C1O  966   3.289   0.084   1.816  0.2524 -0.4733  0.6280
   19POPC   C1P  967   3.282   6.273   1.840  0.2845 -0.5549  0.1385
   19POPC   C1Q  968   3.143   6.216   1.868 -0.0214  0.2987  0.3832
   19POPC   C1R  969   3.167   6.092   1.954  0.3230 -0.4268 -0.7460
   19POPC    CE  970   3.211   5.874   0.779 -0.1029  0.4145  0.3952
   19POPC    OG  971   3.294   5.789   0.858 -0.0336 -0.2180 -0.3437
   19POPC   C2A  972   3.252   5.770   0.983  0.5620  0.4058 -0.0433
   19POPC    OH  973   3.156   5.835   1.022 -0.1952 -0.4606 -0.4256
   19POPC   C2B  974   3.329   5.671   1.063 -0.0273  0.4822  0.6310
   19POPC   C2C  975   3.313   5.530   1.007  0.1676  0.6683  0.1011
   19POPC   C2D  976   3.356   5.433   1.117 -0.5997 -0.1216 -0.2835
   19POPC   C2E  977   3.365   5.287   1.073 -0.0991 -0.1585 -0.0700
   19POPC   C2F  978   3.395   5.192   1.189 -0.2383  0.1610  0.2303
   19POPC   C2G  979   3.512   5.230   1.280 -0.1317  0.2227  0.0690
   19POPC   C2H  980   3.545   5.134   1.395  0.1859  0.3001  0.0438
   19POPC   C2I  981   3.651   5.190   1.490  0.4119 -0.0026 -0.0297
   19POPC   C2J  982   3.683   5.103   1.611 -0.1309  0.1158  0.1993
   19POPC   C2K  983   3.792   5.164   1.699  0.0222 -0.0555  0.1287
   19POPC   C2L  984   3.747   5.299   1.755 -0.2240 -0.1577  0.1760
   19POPC   C2M  985   3.715   5.285   1.904  0.2482  0.2173  0.3136
   19POPC   C2N  986   3.676   5.423   1.958 -0.2836  0.3352 -0.3712
   19POPC   C2O  987   3.667   5.429   2.110  0.2867 -0.2517 -0.3074
   19POPC   C2P  988   3.656   5.575   2.155 -0.0353 -0.3247 -0.1421
   20POPC   CN1  989   0.081   6.095   0.305 -0.3612 -0.0807 -0.1582
   20POPC   CN2  990   0.129   5.867   0.358 -0.1286  0.0838 -0.5456
   20POPC   CN3  991   0.166   6.042   0.515  0.0549  0.7494 -0.0651
   20POPC   NTM  992   0.176   6.006   0.373 -0.3546  0.0974  0.0721
   20POPC    CA  993   0.306   6.027   0.309 -0.0003 -0.3963  0.6224
   20POPC    CB  994   0.426   5.940   0.347  0.3271 -0.2758 -0.1037
   20POPC    OA  995   0.399   5.805   0.307 -0.4104 -0.3887  0.7286
   20POPC     P  996   0.510   5.696   0.349 -0.0039 -0.2636  0.0025
   20POPC    OB  997   0.616   5.760   0.431 -0.4144  0.0063  0.3267
   20POPC    OC  998   0.559   5.609   0.240  0.2608 -0.4697  0.2821
   20POPC    OD  999   0.422   5.601   0.445 -0.3785 -0.4080 -0.4840
   20POPC    CC 1000   0.419   5.641   0.582  0.1902 -0.4107 -0.4719
   20POPC    CD 1001   0.331   5.561   0.678  0.1274 -0.0111 -0.1963
   20POPC    OE 1002   0.278   5.627   0.794  0.2074 -0.0355 -0.1460
   20POPC   C1A 1003   0.188   5.724   0.788  0.6006  0.3624  0.3216
   20POPC    OF 1004   0.134   5.752   0.681  0.4267 -0.1327  0.2795
   20POPC   C1B 1005   0.147   5.782   0.918  0.0182  0.1190  0.2494
   20POPC   C1C 1006   0.201   5.924   0.934  0.2028  0.0606  0.1569
   20POPC   C1D 1007   0.166   5.965   1.077 -0.4401 -0.1860  0.0723
   20POPC   C1E 1008   0.016   5.964   1.110 -0.3409  0.2703  0.5450
   20POPC   C1F 1009   6.293   6.038   1.239 -0.3141  0.6600  0.3319
   20POPC   C1G 1010   0.016   5.941   1.353  0.1126  0.0460 -0.3152
   20POPC   C1H 1011   6.261   5.965   1.489  0.3484 -0.0202 -0.1896
   20POPC   C1I 1012   0.047   6.002   1.602 -0.0133  0.1883  0.0500
   20POPC   C1J 1013   0.054   5.922   1.708  0.5034  0.0533 -0.0864
   20POPC   C1K 1014   6.275   5.798   1.725  0.3634  0.1191 -0.3485
   20POPC   C1L 1015   0.025   5.695   1.821  0.1875  0.2650 -0.0830
   20POPC   C1M 1016   6.280   5.561   1.773 -0.0241  0.1847  0.3827
   20POPC   C1N 1017   0.012   5.458   1.879  0.0754  0.3685  0.5227
   20POPC   C1O 1018   6.284   5.315   1.840 -0.1332  0.5130  0.1823
   20POPC   C1P 1019   0.009   5.213   1.949  0.4168  0.4156 -0.0782
   20POPC   C1Q 1020   0.158   5.201   1.982  0.2353 -0.4249  0.4693
   20POPC   C1R 1021   0.179   5.125   2.113 -0.1758 -1.0840  0.1605
   20POPC    CE 1022   0.410   5.430   0.687 -0.0419 -0.1009 -0.0131
   20POPC    OG 1023   0.534   5.447   0.756 -0.1925  0.1834  0.1882
   20POPC   C2A 1024   0.615   5.342   0.761  0.0700  0.3786  0.0224
   20POPC    OH 1025   0.623   5.269   0.663  0.8021 -0.1482  0.4670
   20POPC   C2B 1026   0.722   5.368   0.860  0.2053  0.2673 -0.0950
   20POPC   C2C 1027   0.686   5.321   1.001 -0.0002  0.1647 -0.1829
   20POPC   C2D 1028   0.789   5.381   1.096  0.1138  0.2815 -0.3798
   20POPC   C2E 1029   0.736   5.363   1.238 -0.0627  0.2500 -0.4495
   20POPC   C2F 1030   0.832   5.402   1.350  0.0136 -0.2146 -0.3508
   20POPC   C2G 1031   0.778   5.385   1.493  0.0581 -0.0575 -0.3152
   20POPC   C2H 1032   0.787   5.241   1.542 -0.2637 -0.0428 -0.2125
   20POPC   C2I 1033   0.741   5.227   1.688  0.1450  0.6230 -0.0167
   20POPC   C2J 1034   0.797   5.095   1.742  0.2690  0.5305 -0.3680
   20POPC   C2K 1035   0.762   5.077   1.889  0.4562 -0.1660 -0.4031
   20POPC   C2L 1036   0.827   4.950   1.945  0.2154  0.0299  0.3448
   20POPC   C2M 1037   0.805   4.923   2.093  0.2088 -0.1623  0.3081
   20POPC   C2N 1038   0.656   4.897   2.116  0.1179 -0.2243 -0.3361
   20POPC   C2O 1039   0.628   4.912   2.266 -0.0706  0.0503 -0.3975
   20POPC   C2P 1040   0.484   4.897   2.314  0.1056  0.0086  0.1219
   21POPC   CN1 1041   3.761   4.050   5.806  0.2046  0.2415 -0.3448
   21POPC   CN2 1042   3.643   4.210   5.926 -0.1208 -0.0677  0.6131
   21POPC   CN3 1043   3.742   4.273   5.719 -0.1871 -0.2366  0.0715
   21POPC   NTM 1044   3.761   4.193   5.840 -0.3129  0.0928  0.3125
   21POPC    CA 1045   3.887   4.214   5.913 -0.5165 -0.1565  0.7419
   21POPC    CB 1046   3.921   4.357   5.953 -0.6327  0.1002 -0.0620
   21POPC    OA 1047   3.845   4.403   0.065 -0.6027  0.0905 -0.0377
   21POPC     P 1048   3.910   4.533   0.134  0.3759 -0.3550 -0.1085
   21POPC    OB 1049   3.802   4.634   0.145  0.5922 -0.1164 -0.1546
   21POPC    OC 1050   4.043   4.564   0.077  0.3549  0.1206  0.0959
   21POPC    OD 1051   3.943   4.472   0.279 -0.2632 -0.1917  0.1089
   21POPC    CC 1052   3.831   4.460   0.367 -0.5951 -0.2908 -0.3262
   21POPC    CD 1053   3.760   4.326   0.388 -0.5698 -0.2396  0.0808
   21POPC    OE 1054   3.656   4.354   0.482  0.0434  0.1927  0.6437
   21POPC   C1A 1055   3.530   4.350   0.439  0.3073 -0.2737 -0.1133
   21POPC    OF 1056   3.505   4.336   0.319 -0.3825 -0.0378 -0.0057
   21POPC   C1B 1057   3.432   4.394   0.541  0.6007  0.0184  0.0442
   21POPC   C1C 1058   3.421   4.309   0.668  0.0633 -0.2032 -0.1476
   21POPC   C1D 1059   3.379   4.385   0.794 -0.3809  0.0715 -0.4578
   21POPC   C1E 1060   3.352   4.282   0.904 -0.0117  0.0246 -0.4079
   21POPC   C1F 1061   3.364   4.345   1.043  0.7503 -0.2856 -0.3316
   21POPC   C1G 1062   3.320   4.258   1.161  0.1690 -0.0159 -0.3494
   21POPC   C1H 1063   3.386   4.121   1.179 -0.0413 -0.1347 -0.4672
   21POPC   C1I 1064   3.314   4.041   1.288  0.7981  0.5338  0.5963
   21POPC   C1J 1065   3.379   3.949   1.359 -0.0817 -0.3052  0.3366
   21POPC   C1K 1066   3.525   3.910   1.334 -0.0663 -0.3863  0.5507
   21POPC   C1L 1067   3.592   3.854   1.459  0.3746  0.3075  0.6299
   21POPC   C1M 1068   3.744   3.850   1.438  0.2675  0.1958 -0.1590
   21POPC   C1N 1069   3.816   3.855   1.573  0.0013  0.4767 -0.0248
   21POPC   C1O 1070   3.794   3.732   1.661  0.0801  0.2611 -0.3052
   21POPC   C1P 1071   3.902   3.742   1.768  0.2517  0.5428 -0.5036
   21POPC   C1Q 1072   3.894   3.627   1.869 -0.3393  0.4858 -0.6134
   21POPC   C1R 1073   3.991   3.639   1.987 -0.1031  0.3331 -0.7894
   21POPC    CE 1074   3.866   4.231   0.446  0.0011  0.1973 -0.2372
   21POPC    OG 1075   3.884   4.246   0.587 -0.2412 -0.1664 -0.1656
   21POPC   C2A 1076   3.935   4.142   0.653  0.0605  0.0643 -0.0310
   21POPC    OH 1077   4.004   4.058   0.596  0.2416 -0.2409  0.6260
   21POPC   C2B 1078   3.910   4.143   0.799  0.2453  0.4297 -0.0009
   21POPC   C2C 1079   3.844   4.017   0.856  0.1147  0.3453 -0.3369
   21POPC   C2D 1080   3.797   4.051   0.997 -0.2280  0.2992 -0.4404
   21POPC   C2E 1081   3.892   4.138   1.079 -0.3490 -0.0939  0.1214
   21POPC   C2F 1082   3.855   4.195   1.216 -0.2259  0.3658 -0.0367
   21POPC   C2G 1083   3.748   4.305   1.214 -0.7039 -0.0983  0.0479
   21POPC   C2H 1084   3.737   4.374   1.349 -0.4637 -0.0487  0.0422
   21POPC   C2I 1085   3.646   4.298   1.446 -0.2538  0.3434  0.5521
   21POPC   C2J 1086   3.685   4.339   1.588  0.9003 -0.3277  0.4328
   21POPC   C2K 1087   3.624   4.247   1.694  0.1343 -0.2712  0.0455
   21POPC   C2L 1088   3.471   4.240   1.699  0.1033  0.3416 -0.0083
   21POPC   C2M 1089   3.422   4.142   1.806  0.2330  0.0101 -0.2501
   21POPC   C2N 1090   3.396   3.995   1.773 -0.2334  0.0843 -0.2157
   21POPC   C2O 1091   3.384   3.897   1.891 -0.0256  0.0290 -0.2398
   21POPC   C2P 1092   3.520   3.890   1.959 -0.2176  0.2734  0.1726
   22POPC   CN1 1093   4.148   3.566   0.495  0.3408 -0.2403 -0.5506
   22POPC   CN2 1094   4.235   3.648   0.288 -0.0841 -0.0719 -0.0256
   22POPC   CN3 1095   4.366   3.685   0.470  0.2221 -0.0825  0.2215
   22POPC   NTM 1096   4.224   3.675   0.432  0.2760  0.1126 -0.0315
   22POPC    CA 1097   4.155   3.803   0.452  0.2278  0.0171  0.4250
   22POPC    CB 1098   4.191   3.931   0.375  0.2827 -0.2761 -0.0456
   22POPC    OA 1099   4.189   3.931   0.232  0.0794  0.4037 -0.0440
   22POPC     P 1100   4.052   3.972   0.160 -0.0633 -0.1057 -0.0579
   22POPC    OB 1101   4.067   3.987   0.013  0.3200 -0.1201 -0.0200
   22POPC    OC 1102   4.010   4.092   0.235  0.1798  0.0353 -0.1494
   22POPC    OD 1103   3.966   3.840   0.197 -0.3221 -0.0780 -0.5426
   22POPC    CC 1104   3.839   3.887   0.242 -0.1088  0.3998 -0.4290
   22POPC    CD 1105   3.714   3.800   0.222  0.0740 -0.0319  0.2787
   22POPC    OE 1106   3.599   3.881   0.248 -0.1642 -0.0856 -0.5638
   22POPC   C1A 1107   3.474   3.835   0.255 -0.0626 -0.3476 -0.4281
   22POPC    OF 1108   3.447   3.740   0.182  0.5876 -0.9319  0.0817
   22POPC   C1B 1109   3.384   3.933   0.319  0.5135 -0.2775  0.2886
   22POPC   C1C 1110   3.399   3.955   0.469 -0.1321  0.4386  0.2533
   22POPC   C1D 1111   3.407   3.831   0.558 -0.5917  0.4958  0.3803
   22POPC   C1E 1112   3.434   3.877   0.701 -0.0729  0.3462  0.3349
   22POPC   C1F 1113   3.421   3.765   0.803 -0.6633 -0.2358 -0.3641
   22POPC   C1G 1114   3.447   3.803   0.949  0.0145 -1.0684 -0.2567
   22POPC   C1H 1115   3.395   3.698   1.048 -0.5037  0.1431  0.7899
   22POPC   C1I 1116   3.501   3.593   1.081 -0.2066  0.0058 -0.5384
   22POPC   C1J 1117   3.486   3.533   1.198  0.4394  0.5976 -0.1353
   22POPC   C1K 1118   3.365   3.552   1.290 -0.0027 -0.7650 -0.4078
   22POPC   C1L 1119   3.329   3.428   1.373 -0.4073 -0.4841 -0.1596
   22POPC   C1M 1120   3.438   3.430   1.480 -0.2927 -0.2640 -0.2799
   22POPC   C1N 1121   3.433   3.324   1.590 -0.0209  0.1644  0.1483
   22POPC   C1O 1122   3.315   3.334   1.688 -0.0823 -0.1220  0.1031
   22POPC   C1P 1123   3.329   3.246   1.812  0.4416 -0.0430  0.1027
   22POPC   C1Q 1124   3.355   3.095   1.796  0.2290 -0.0557 -0.1295
   22POPC   C1R 1125   3.359   3.032   1.936  0.2634 -0.4402 -0.3048
   22POPC    CE 1126   3.735   3.668   0.296  0.0878 -0.1744  0.0206
   22POPC    OG 1127   3.781   3.673   0.431 -0.1470  0.3343  0.0857
   22POPC   C2A 1128   3.711   3.602   0.519  0.5622 -0.2848  0.1662
   22POPC    OH 1129   3.635   3.508   0.494  0.1639  0.0487  0.1137
   22POPC   C2B 1130   3.759   3.626   0.657 -0.3902  0.4401  0.3836
   22POPC   C2C 1131   3.810   3.501   0.728  0.2506  0.1839 -0.5138
   22POPC   C2D 1132   3.856   3.549   0.866  0.2970  0.0613 -0.4861
   22POPC   C2E 1133   3.974   3.646   0.877 -0.0315  0.4781 -0.6106
   22POPC   C2F 1134   3.994   3.679   1.025  0.3528 -0.2264 -0.5026
   22POPC   C2G 1135   4.112   3.767   1.065 -0.2392  0.5763 -0.5110
   22POPC   C2H 1136   4.101   3.802   1.213 -0.3253 -0.0660 -0.3629
   22POPC   C2I 1137   4.215   3.898   1.246  0.0721 -0.7493  0.2685
   22POPC   C2J 1138   4.225   3.933   1.395 -0.7228 -0.1168  0.1794
   22POPC   C2K 1139   4.232   3.810   1.486 -0.5851 -0.5650 -0.4244
   22POPC   C2L 1140   4.273   3.854   1.628  0.3201 -0.2728 -0.7661
   22POPC   C2M 1141   4.403   3.927   1.660 -0.0218 -0.0809  0.2109
   22POPC   C2N 1142   4.451   3.923   1.805  0.1962 -0.4725  0.1262
   22POPC   C2O 1143   4.567   4.010   1.853 -0.1472  0.1738 -0.2020
   22POPC   C2P 1144   4.596   3.971   1.998  0.5157  0.5404 -0.2334
   23POPC   CN1 1145   3.693   5.925   0.127 -1.0579 -0.2480 -0.7109
   23POPC   CN2 1146   3.492   5.855   0.237 -0.3378 -0.0795 -0.2825
   23POPC   CN3 1147   3.701   5.849   0.351  0.3154  0.4216  0.0065
   23POPC   NTM 1148   3.636   5.827   0.221 -0.2121  0.2176  0.3054
   23POPC    CA 1149   3.656   5.701   0.148  0.4566  0.3804  0.2077
   23POPC    CB 1150   3.625   5.564   0.207  0.4471  0.1686 -0.2854
   23POPC    OA 1151   3.719   5.517   0.304  0.0301 -0.2293 -0.0667
   23POPC     P 1152   3.806   5.397   0.241  0.0518 -0.2439 -0.0088
   23POPC    OB 1153   3.833   5.449   0.105 -0.4006  0.1739  0.0566
   23POPC    OC 1154   3.741   5.266   0.263 -0.2223 -0.0504  0.3412
   23POPC    OD 1155   3.945   5.394   0.321  0.2036 -0.0765 -0.2631
   23POPC    CC 1156   4.047   5.478   0.267 -0.0095 -0.0534 -0.6286
   23POPC    CD 1157   4.049   5.618   0.328  0.2290 -0.4173  0.2108
   23POPC    OE 1158   4.132   5.717   0.266 -0.6619  0.0482 -0.2450
   23POPC   C1A 1159   4.097   5.846   0.264 -0.2521  0.1632 -0.0076
   23POPC    OF 1160   3.978   5.869   0.247 -0.3588 -0.3333  0.0449
   23POPC   C1B 1161   4.206   5.940   0.229 -0.2901  0.2177  0.0191
   23POPC   C1C 1162   4.283   5.996   0.349 -0.0012  0.0660 -0.0920
   23POPC   C1D 1163   4.196   6.073   0.449 -0.0371  0.1740 -0.2055
   23POPC   C1E 1164   4.280   6.157   0.545 -0.4168  0.2788  0.0373
   23POPC   C1F 1165   4.224   6.203   0.680  0.2851  1.0170  0.0810
   23POPC   C1G 1166   4.077   6.246   0.680 -0.1239 -0.3553 -0.1246
   23POPC   C1H 1167   4.023   6.259   0.823  0.0116 -0.2215 -0.0859
   23POPC   C1I 1168   3.891   6.335   0.815  0.0747 -0.0642  0.3542
   23POPC   C1J 1169   3.846   0.081   0.906  0.2484  0.2596  0.1376
   23POPC   C1K 1170   3.933   0.103   1.030  0.0235  0.3956  0.2733
   23POPC   C1L 1171   3.848   0.085   1.155 -0.2773  0.6627  0.1076
   23POPC   C1M 1172   3.927   0.095   1.286 -0.1694 -0.2459  0.1183
   23POPC   C1N 1173   3.842   0.030   1.396 -0.4142 -0.0402  0.0538
   23POPC   C1O 1174   3.914   0.033   1.531 -0.1800  0.0611 -0.0722
   23POPC   C1P 1175   3.832   0.014   1.659  0.2041 -0.0579  0.1561
   23POPC   C1Q 1176   3.787   6.210   1.685 -0.5956  0.0674 -0.4825
   23POPC   C1R 1177   3.716   6.212   1.820 -0.6076  0.9273 -0.4975
   23POPC    CE 1178   4.069   5.603   0.479  0.1093 -0.1936  0.2491
   23POPC    OG 1179   4.107   5.718   0.556  0.1518 -0.0927  0.0784
   23POPC   C2A 1180   4.064   5.711   0.681 -0.1991  0.4073 -0.0095
   23POPC    OH 1181   3.946   5.684   0.702 -0.3387  0.5313 -0.6177
   23POPC   C2B 1182   4.138   5.800   0.773 -0.1381  0.2100  0.1329
   23POPC   C2C 1183   4.079   5.825   0.912  0.3014 -0.0910  0.3767
   23POPC   C2D 1184   4.144   5.946   0.979 -0.1553  0.2190  0.2626
   23POPC   C2E 1185   4.077   5.964   1.115  0.0243 -0.1557  0.4010
   23POPC   C2F 1186   4.126   6.095   1.177  0.0724  0.0996 -0.1694
   23POPC   C2G 1187   4.252   6.085   1.263 -0.0653  0.2811  0.0562
   23POPC   C2H 1188   4.289   6.221   1.322  0.6532  0.2460 -0.3075
   23POPC   C2I 1189   4.407   6.200   1.418  0.4044 -0.1506 -0.0909
   23POPC   C2J 1190   4.453   6.325   1.491  0.0161  0.0363 -0.1623
   23POPC   C2K 1191   4.350   0.037   1.592 -0.2010 -0.4768 -0.1196
   23POPC   C2L 1192   4.389   0.161   1.672 -0.2061 -0.3163 -0.3638
   23POPC   C2M 1193   4.262   0.198   1.748  0.0530 -0.0244 -0.0702
   23POPC   C2N 1194   4.264   0.339   1.809 -0.0194 -0.0907  0.0861
   23POPC   C2O 1195   4.142   0.426   1.779  0.3384  0.3696 -0.0495
   23POPC   C2P 1196   4.155   0.554   1.862  0.2596  0.1946  0.2352
   24POPC   CN1 1197   2.001   2.834   5.776 -0.3224  0.0437  0.3417
   24POPC   CN2 1198   1.894   2.849   5.979 -0.3917  0.0467 -0.3066
   24POPC   CN3 1199   2.132   2.869   5.973  0.0644  0.3009  0.2997
   24POPC   NTM 1200   2.017   2.798   5.917  0.0484  0.2787  0.3618
   24POPC    CA 1201   2.046   2.654   5.929 -0.0010  0.2627  0.2929
   24POPC    CB 1202   2.013   2.574   0.055  0.1342 -0.1962  0.0391
   24POPC    OA 1203   1.877   2.537   0.081 -0.0477  0.3020 -0.1812
   24POPC     P 1204   1.853   2.443   0.210  0.3391  0.4070 -0.0333
   24POPC    OB 1205   1.967   2.351   0.229  0.2805  0.2590 -0.4003
   24POPC    OC 1206   1.710   2.408   0.224  0.5706 -0.2118  0.8492
   24POPC    OD 1207   1.879   2.570   0.305  0.0290  0.3123  0.1778
   24POPC    CC 1208   1.807   2.564   0.429  0.0736 -0.1888  0.1801
   24POPC    CD 1209   1.753   2.706   0.450  0.1699 -0.1300  0.0312
   24POPC    OE 1210   1.722   2.729   0.587  0.1190 -0.2766  0.0441
   24POPC   C1A 1211   1.682   2.848   0.630  1.0129 -0.0053  0.1476
   24POPC    OF 1212   1.669   2.945   0.556  0.3772  0.2858  0.6258
   24POPC   C1B 1213   1.649   2.843   0.774  0.2270 -0.7196 -0.0483
   24POPC   C1C 1214   1.508   2.795   0.808 -0.3457  0.5932 -0.5145
   24POPC   C1D 1215   1.483   2.645   0.791 -0.5000  0.5162  0.3433
   24POPC   C1E 1216   1.529   2.544   0.897 -0.4797  0.2411  0.0725
   24POPC   C1F 1217   1.464   2.579   1.030 -0.5473  0.7430 -0.0897
   24POPC   C1G 1218   1.489   2.472   1.137 -0.4681  0.5173 -0.3323
   24POPC   C1H 1219   1.620   2.488   1.215 -0.3210 -0.3926 -0.3886
   24POPC   C1I 1220   1.654   2.356   1.285  0.4238  0.0192  0.0342
   24POPC   C1J 1221   1.634   2.342   1.415 -0.2081  0.0775 -0.0556
   24POPC   C1K 1222   1.574   2.443   1.514 -0.0222  0.2826 -0.1511
   24POPC   C1L 1223   1.635   2.413   1.651 -0.7339 -0.4160  0.0227
   24POPC   C1M 1224   1.582   2.513   1.753  0.2205 -0.1028  0.2259
   24POPC   C1N 1225   1.639   2.464   1.887 -0.5699 -0.2904  0.5021
   24POPC   C1O 1226   1.616   2.563   2.001  0.0041  0.2502  0.1582
   24POPC   C1P 1227   1.710   2.533   2.118 -0.2604 -0.2568  0.2462
   24POPC   C1Q 1228   1.689   2.643   2.223 -0.3482  0.0273 -0.0652
   24POPC   C1R 1229   1.780   2.613   2.342 -0.2526  0.4919 -0.0181
   24POPC    CE 1230   1.637   2.708   0.351  0.1340  0.5202  0.0869
   24POPC    OG 1231   1.528   2.618   0.374 -0.2863  1.0676  0.2643
   24POPC   C2A 1232   1.435   2.579   0.289  0.2473 -0.1396  0.2084
   24POPC    OH 1233   1.402   2.670   0.212  0.2410 -0.4021 -0.1043
   24POPC   C2B 1234   1.358   2.456   0.314  0.1657 -0.2132 -0.3771
   24POPC   C2C 1235   1.219   2.496   0.363  0.2735  0.1215 -0.3449
   24POPC   C2D 1236   1.216   2.549   0.507  0.2561  0.7210 -0.5626
   24POPC   C2E 1237   1.071   2.584   0.542  0.1571 -0.0349 -0.1955
   24POPC   C2F 1238   1.064   2.642   0.683 -0.3068  0.2006 -0.3152
   24POPC   C2G 1239   1.090   2.792   0.691 -0.5456  0.2339 -0.1364
   24POPC   C2H 1240   1.059   2.856   0.826 -0.1326  0.0304  0.0547
   24POPC   C2I 1241   1.150   2.806   0.939 -0.4728 -0.1281  0.2571
   24POPC   C2J 1242   1.126   2.876   1.073  0.2906  0.1709  0.2410
   24POPC   C2K 1243   1.168   2.786   1.190 -0.1677  0.1906  0.4235
   24POPC   C2L 1244   1.081   2.663   1.218  0.1519 -0.1942 -0.2356
   24POPC   C2M 1245   1.143   2.576   1.327 -0.0716 -0.2145 -0.1249
   24POPC   C2N 1246   1.131   2.627   1.471  0.1303 -0.2582 -0.0923
   24POPC   C2O 1247   1.180   2.526   1.576 -0.1892 -0.1336  0.1800
   24POPC   C2P 1248   1.190   2.598   1.711 -0.0466  0.1181  0.0374
   25POPC   CN1 1249   1.457   4.012   0.287  0.0161 -0.5336 -0.4286
   25POPC   CN2 1250   1.353   3.833   0.399 -0.3254  0.0595 -0.2580
   25POPC   CN3 1251   1.589   3.850   0.387  0.2108  0.4273  0.5272
   25POPC   NTM 1252   1.465   3.867   0.310  0.2463 -0.4120  0.2709
   25POPC    CA 1253   1.490   3.782   0.193  0.1227 -0.6752  0.4340
   25POPC    CB 1254   1.379   3.758   0.091  0.6010  0.3915 -0.3551
   25POPC    OA 1255   1.297   3.867   0.048 -0.0044  0.0840  0.0111
   25POPC     P 1256   1.152   3.819   5.996  0.0422 -0.1625  0.1095
   25POPC    OB 1257   1.100   3.705   0.076  0.0925 -0.1875  0.1067
   25POPC    OC 1258   1.160   3.816   5.848  0.1379  0.1168  0.1092
   25POPC    OD 1259   1.074   3.950   0.047 -0.4543 -0.1612 -0.6445
   25POPC    CC 1260   1.052   3.946   0.188 -0.2493  0.2938 -0.5987
   25POPC    CD 1261   1.068   4.084   0.252 -0.4391  0.2804 -0.5209
   25POPC    OE 1262   1.121   4.082   0.385 -0.1228  0.2361 -0.6454
   25POPC   C1A 1263   1.139   4.183   0.469  0.1592 -0.0514 -0.3603
   25POPC    OF 1264   1.123   4.297   0.426 -0.4009 -0.0564 -0.1664
   25POPC   C1B 1265   1.216   4.140   0.588  0.1945  0.0338 -0.3515
   25POPC   C1C 1266   1.147   4.137   0.724  0.4634 -0.0136 -0.2140
   25POPC   C1D 1267   1.229   4.071   0.835  0.3211  0.3908  0.1371
   25POPC   C1E 1268   1.156   4.093   0.967 -0.2052 -0.4233 -0.0083
   25POPC   C1F 1269   1.218   4.000   1.072 -0.0731 -0.1402  0.1666
   25POPC   C1G 1270   1.134   3.994   1.199 -0.1574  0.2858  0.1321
   25POPC   C1H 1271   1.201   3.906   1.305 -0.2606  0.0235 -0.0185
   25POPC   C1I 1272   1.103   3.902   1.423 -0.1281  0.3127  0.1031
   25POPC   C1J 1273   1.158   3.880   1.542  0.0104  0.0587 -0.0048
   25POPC   C1K 1274   1.308   3.860   1.563 -0.0168  0.1974  0.3376
   25POPC   C1L 1275   1.340   3.744   1.658  1.3661  0.2217 -0.0806
   25POPC   C1M 1276   1.303   3.780   1.802 -0.4904 -0.2752 -0.4108
   25POPC   C1N 1277   1.291   3.660   1.896 -0.1152 -0.2004 -0.2648
   25POPC   C1O 1278   1.151   3.641   1.954  0.0919 -0.4603  0.1572
   25POPC   C1P 1279   1.116   3.519   2.040 -0.3563 -0.6373 -0.2748
   25POPC   C1Q 1280   1.223   3.474   2.139 -0.7231 -0.1286  0.3612
   25POPC   C1R 1281   1.190   3.334   2.191 -0.3252 -0.0584  0.8095
   25POPC    CE 1282   0.955   4.175   0.203 -0.4641  0.2882 -0.4483
   25POPC    OG 1283   0.830   4.142   0.265 -0.2831  0.0815 -0.1916
   25POPC   C2A 1284   0.734   4.234   0.261 -0.3039  0.0673 -0.0021
   25POPC    OH 1285   0.735   4.327   0.181 -0.4542  0.4688  0.4515
   25POPC   C2B 1286   0.612   4.208   0.341 -0.3206  0.3750  0.0761
   25POPC   C2C 1287   0.625   4.282   0.474 -0.3311  0.1650  0.1951
   25POPC   C2D 1288   0.733   4.244   0.575  0.1022 -0.3868 -0.4672
   25POPC   C2E 1289   0.693   4.290   0.715  0.1767 -0.1073 -0.5354
   25POPC   C2F 1290   0.739   4.192   0.824 -0.6324 -0.2116 -0.2790
   25POPC   C2G 1291   0.688   4.238   0.960 -0.0289 -0.1497 -0.0713
   25POPC   C2H 1292   0.718   4.156   1.086  0.2892  0.0390 -0.0259
   25POPC   C2I 1293   0.681   4.008   1.081  0.4185 -0.0110  0.4460
   25POPC   C2J 1294   0.665   3.951   1.222  0.0301 -0.0286  0.3952
   25POPC   C2K 1295   0.665   3.799   1.209 -0.1974  0.0157 -0.1609
   25POPC   C2L 1296   0.701   3.736   1.344 -0.5302  0.2851  0.0537
   25POPC   C2M 1297   0.584   3.661   1.410 -0.2392  0.0044  0.2519
   25POPC   C2N 1298   0.640   3.611   1.543  0.3735  0.2193  0.0792
   25POPC   C2O 1299   0.755   3.511   1.533  0.1712  0.0025 -0.0682
   25POPC   C2P 1300   0.771   3.424   1.658 -0.1452  0.0729  0.0218
   26POPC   CN1 1301   1.848   5.210   0.097  0.5311 -0.5371  0.2305
   26POPC   CN2 1302   1.907   5.412   0.208  0.2274 -0.0216 -0.3242
   26POPC   CN3 1303   1.818   5.231   0.344  0.2180 -0.0225 -0.3356
   26POPC   NTM 1304   1.816   5.297   0.212  0.1513  0.0398 -0.3039
   26POPC    CA 1305   1.681   5.351   0.191 -0.1056 -0.2412  0.5678
   26POPC    CB 1306   1.546   5.281   0.176 -0.1712 -0.0401  0.1889
   26POPC    OA 1307   1.487   5.243   0.301  0.2661  0.0062  0.4144
   26POPC     P 1308   1.331   5.214   0.272  0.2695  0.4060 -0.0150
   26POPC    OB 1309   1.324   5.085   0.200  0.2543  0.3407  0.1034
   26POPC    OC 1310   1.268   5.341   0.228 -0.3537  0.0864 -0.0613
   26POPC    OD 1311   1.290   5.184   0.425  0.2245 -0.2978 -0.1615
   26POPC    CC 1312   1.312   5.050   0.468  0.2191 -0.1606  0.2688
   26POPC    CD 1313   1.339   5.046   0.619 -0.5091  0.6693  0.4243
   26POPC    OE 1314   1.335   4.912   0.670  0.7092  0.3769 -0.2263
   26POPC   C1A 1315   1.439   4.830   0.655  0.3553 -0.1534  0.1820
   26POPC    OF 1316   1.528   4.859   0.575  0.0001  0.1440 -0.1141
   26POPC   C1B 1317   1.444   4.715   0.748 -0.0429 -0.3887 -0.0848
   26POPC   C1C 1318   1.575   4.698   0.824 -0.4041 -0.3068  0.5629
   26POPC   C1D 1319   1.612   4.811   0.921  0.2550 -0.0211 -0.0101
   26POPC   C1E 1320   1.759   4.795   0.963  0.2698  0.2201  0.0286
   26POPC   C1F 1321   1.800   4.917   1.046  0.2799  0.0319  0.3010
   26POPC   C1G 1322   1.952   4.931   1.035  0.2651 -0.0373 -0.0083
   26POPC   C1H 1323   2.013   5.060   1.091  0.4274 -0.2035  0.2034
   26POPC   C1I 1324   2.164   5.079   1.073  0.4477 -0.3370  0.2331
   26POPC   C1J 1325   2.219   5.179   1.141  0.3973 -0.3109  0.2350
   26POPC   C1K 1326   2.142   5.278   1.228 -0.2775 -0.5256 -0.1153
   26POPC   C1L 1327   2.214   5.318   1.357 -0.5420 -0.5789  0.0507
   26POPC   C1M 1328   2.115   5.405   1.435  0.3344  0.1193  0.3966
   26POPC   C1N 1329   2.149   5.394   1.584 -0.4039 -0.3494  0.5343
   26POPC   C1O 1330   2.032   5.388   1.683 -0.5244  0.4114  0.4391
   26POPC   C1P 1331   2.083   5.372   1.826  0.2322  0.5948  0.1955
   26POPC   C1Q 1332   1.973   5.363   1.931 -0.0303  0.2080 -0.1117
   26POPC   C1R 1333   2.041   5.369   2.068  0.2603 -0.6530 -0.2153
   26POPC    CE 1334   1.239   5.137   0.691 -0.3307  1.0333  0.2170
   26POPC    OG 1335   1.116   5.076   0.731  0.0755 -0.2217 -0.3653
   26POPC   C2A 1336   1.016   5.153   0.776  0.2053 -0.1343 -0.2266
   26POPC    OH 1337   1.019   5.275   0.768 -0.2966 -0.1158 -0.1422
   26POPC   C2B 1338   0.915   5.052   0.814  0.4121 -0.2605 -0.0079
   26POPC   C2C 1339   0.924   5.011   0.962  0.1208  0.4405  0.2097
   26POPC   C2D 1340   0.799   4.935   1.006  0.3905 -0.0553  0.1334
   26POPC   C2E 1341   0.820   4.867   1.141  0.2767 -0.6256 -0.1325
   26POPC   C2F 1342   0.826   4.952   1.268  0.0810  0.0016 -0.5427
   26POPC   C2G 1343   0.839   4.875   1.399 -0.1126  0.5688 -0.1837
   26POPC   C2H 1344   0.978   4.832   1.445 -0.3491 -0.1354 -0.1084
   26POPC   C2I 1345   0.978   4.786   1.591 -0.6118  0.5636  0.1182
   26POPC   C2J 1346   1.115   4.795   1.659 -0.4013 -0.5644 -0.1215
   26POPC   C2K 1347   1.138   4.709   1.783 -0.2494  0.2807  0.4463
   26POPC   C2L 1348   1.270   4.718   1.860 -0.2136 -0.7301  0.5118
   26POPC   C2M 1349   1.378   4.643   1.782 -0.2781  0.2937 -0.5909
   26POPC   C2N 1350   1.347   4.493   1.789 -0.3005  0.3045 -0.4572
   26POPC   C2O 1351   1.433   4.419   1.686  0.0610  0.1689 -0.0613
   26POPC   C2P 1352   1.406   4.269   1.680 -0.1324  0.2039 -0.0805
   27POPC   CN1 1353   2.624   5.433   0.429  0.7270  0.0919  0.0313
   27POPC   CN2 1354   2.545   5.312   0.250  0.2343  0.0438 -0.0597
   27POPC   CN3 1355   2.683   5.206   0.414  0.1162  0.0036  0.2435
   27POPC   NTM 1356   2.664   5.328   0.334  0.1886 -0.1200  0.0360
   27POPC    CA 1357   2.791   5.370   0.275  0.1367 -0.2545 -0.1726
   27POPC    CB 1358   2.795   5.466   0.156  0.2023  0.0424  0.0675
   27POPC    OA 1359   2.734   5.591   0.187 -0.4172 -0.2118 -0.1275
   27POPC     P 1360   2.704   5.688   0.062 -0.0765  0.0159 -0.0323
   27POPC    OB 1361   2.583   5.642   5.991  0.0153 -0.1033 -0.1129
   27POPC    OC 1362   2.829   5.746   0.007 -0.1601  0.0931 -0.1413
   27POPC    OD 1363   2.656   5.824   0.134  0.0181  0.1558 -0.2335
   27POPC    CC 1364   2.519   5.822   0.173  0.1446  0.2486  0.2186
   27POPC    CD 1365   2.471   5.774   0.310  0.0059 -0.4581 -0.0765
   27POPC    OE 1366   2.330   5.781   0.331  0.0648  0.5291  0.0086
   27POPC   C1A 1367   2.266   5.667   0.353 -0.1352  0.5725 -0.3418
   27POPC    OF 1368   2.327   5.561   0.344  0.0745  0.6659 -0.0234
   27POPC   C1B 1369   2.123   5.690   0.384 -0.1062 -0.0623  0.2950
   27POPC   C1C 1370   2.094   5.619   0.516  0.2733 -0.4750  0.1585
   27POPC   C1D 1371   2.140   5.711   0.629  0.2467 -0.2017 -0.0531
   27POPC   C1E 1372   2.173   5.626   0.752  0.3147 -0.0900  0.0064
   27POPC   C1F 1373   2.215   5.719   0.866 -0.0308 -0.0388  0.0924
   27POPC   C1G 1374   2.288   5.643   0.977 -0.3914 -0.5512 -0.0150
   27POPC   C1H 1375   2.336   5.737   1.088 -0.0790 -0.2043 -0.4425
   27POPC   C1I 1376   2.451   5.660   1.153  0.1962  0.3544 -0.2640
   27POPC   C1J 1377   2.487   5.659   1.282  0.4031  0.2687 -0.3215
   27POPC   C1K 1378   2.404   5.737   1.385 -0.1642 -0.4551 -0.2267
   27POPC   C1L 1379   2.449   5.710   1.529 -0.0630 -0.5571 -0.2766
   27POPC   C1M 1380   2.415   5.826   1.623  0.1260 -0.5571 -0.2083
   27POPC   C1N 1381   2.454   5.788   1.766 -0.3058  0.2406  0.1258
   27POPC   C1O 1382   2.373   5.858   1.876 -0.0623  0.8124 -0.0592
   27POPC   C1P 1383   2.227   5.816   1.892  0.2496 -0.2459  0.0388
   27POPC   C1Q 1384   2.164   5.900   2.003 -0.1852 -0.0093 -0.3869
   27POPC   C1R 1385   2.018   5.858   2.021 -0.0263 -0.3747  0.0461
   27POPC    CE 1386   2.567   5.839   0.410 -0.3469  0.0064 -0.0368
   27POPC    OG 1387   2.654   5.748   0.478 -0.1295 -0.0380 -0.3686
   27POPC   C2A 1388   2.762   5.790   0.542  0.1242 -0.5448 -0.4534
   27POPC    OH 1389   2.801   5.907   0.536  0.2920 -0.5393  0.5596
   27POPC   C2B 1390   2.831   5.685   0.621 -0.1896 -0.2582  0.2106
   27POPC   C2C 1391   2.799   5.704   0.770  0.0835  0.1212  0.2218
   27POPC   C2D 1392   2.861   5.602   0.865  0.4627  0.0864 -0.0589
   27POPC   C2E 1393   2.843   5.654   1.008  0.1086  0.1198 -0.1154
   27POPC   C2F 1394   2.923   5.572   1.109 -0.0063  0.0693 -0.0646
   27POPC   C2G 1395   2.890   5.624   1.249  0.1678  0.3982 -0.1451
   27POPC   C2H 1396   2.958   5.759   1.273  1.1647 -0.0641 -0.3077
   27POPC   C2I 1397   2.895   5.819   1.399  0.2255 -0.0656 -0.7654
   27POPC   C2J 1398   2.930   5.742   1.527 -0.3410 -0.3278 -0.7667
   27POPC   C2K 1399   2.883   5.821   1.649 -0.1981 -0.6487 -0.5024
   27POPC   C2L 1400   2.906   5.745   1.780 -0.1559 -0.2245 -0.2638
   27POPC   C2M 1401   2.845   5.820   1.898  0.5905  0.0160 -0.0257
   27POPC   C2N 1402   2.896   5.752   2.026  0.6528 -0.0837 -0.1037
   27POPC   C2O 1403   3.045   5.758   2.056  0.6303  0.4240 -0.0922
   27POPC   C2P 1404   3.071   5.688   2.190 -0.4553  0.4088  0.1173
   28POPC   CN1 1405   3.152   4.646   0.092 -0.5333 -0.1661  0.4412
   28POPC   CN2 1406   3.217   4.501   0.256  0.2158  0.1125  0.1298
   28POPC   CN3 1407   3.376   4.646   0.148  0.0684 -0.0802  0.1744
   28POPC   NTM 1408   3.262   4.555   0.127 -0.1151  0.1819  0.0417
   28POPC    CA 1409   3.295   4.453   0.027  0.5523  0.3716  0.0621
   28POPC    CB 1410   3.206   4.329   0.018  0.2103  0.6379 -0.2807
   28POPC    OA 1411   3.065   4.346   0.008  0.0584 -0.0055  0.5948
   28POPC     P 1412   3.002   4.198   5.999 -0.3234  0.1879 -0.0271
   28POPC    OB 1413   3.086   4.109   0.083  0.8038  0.7902 -0.4979
   28POPC    OC 1414   2.984   4.167   5.856  0.7365  0.1642 -0.1665
   28POPC    OD 1415   2.860   4.237   0.065 -0.3313  0.3657 -0.1499
   28POPC    CC 1416   2.877   4.257   0.205  0.5772  0.3775 -0.2514
   28POPC    CD 1417   2.758   4.305   0.289  0.2217 -0.3264 -0.3508
   28POPC    OE 1418   2.790   4.364   0.415  0.4777 -0.7231 -0.2287
   28POPC   C1A 1419   2.854   4.479   0.431 -0.1538 -0.3585 -0.2840
   28POPC    OF 1420   2.929   4.523   0.344  0.4545  0.7937  0.7928
   28POPC   C1B 1421   2.853   4.510   0.576  0.3912 -0.1625 -0.3185
   28POPC   C1C 1422   2.983   4.579   0.619 -0.0232  0.2583  0.2733
   28POPC   C1D 1423   2.995   4.637   0.760  0.0831 -0.0168  0.3792
   28POPC   C1E 1424   2.983   4.530   0.868 -0.1517 -0.1906  0.1816
   28POPC   C1F 1425   3.010   4.580   1.010  0.1922  0.2030 -0.0210
   28POPC   C1G 1426   2.938   4.482   1.102  0.3454 -0.1733 -0.3018
   28POPC   C1H 1427   2.955   4.517   1.250 -0.1861 -0.4950 -0.1606
   28POPC   C1I 1428   2.873   4.420   1.335 -0.1300 -0.1123  0.3347
   28POPC   C1J 1429   2.804   4.464   1.440 -0.5887 -0.1372  0.0451
   28POPC   C1K 1430   2.826   4.611   1.477 -0.3604 -0.0539 -0.4038
   28POPC   C1L 1431   2.758   4.641   1.612  0.2569 -0.3457 -0.0261
   28POPC   C1M 1432   2.801   4.778   1.665 -0.6915  0.1012 -0.3887
   28POPC   C1N 1433   2.692   4.829   1.759 -0.2469 -0.3770  0.4051
   28POPC   C1O 1434   2.631   4.740   1.867 -0.5750 -0.4842  0.1336
   28POPC   C1P 1435   2.513   4.800   1.943  0.5771  0.8416  0.9243
   28POPC   C1Q 1436   2.445   4.687   2.020  0.4785  0.2178 -0.0609
   28POPC   C1R 1437   2.317   4.731   2.091  0.5811  0.2176  0.1248
   28POPC    CE 1438   2.652   4.195   0.282  0.0011 -0.1474  0.1260
   28POPC    OG 1439   2.679   4.062   0.329 -0.3789 -0.2200  0.1421
   28POPC   C2A 1440   2.574   3.994   0.374 -0.4125 -0.3213 -0.0923
   28POPC    OH 1441   2.462   4.044   0.361 -0.4000 -0.1687  0.3871
   28POPC   C2B 1442   2.599   3.868   0.447 -0.0166  0.0263  0.3753
   28POPC   C2C 1443   2.527   3.868   0.582 -0.1576 -0.6784  0.3036
   28POPC   C2D 1444   2.591   3.757   0.665  0.5981 -0.4384  0.0497
   28POPC   C2E 1445   2.535   3.770   0.807  0.6931 -0.1865  0.0643
   28POPC   C2F 1446   2.576   3.647   0.888  0.2414 -0.2488  0.2002
   28POPC   C2G 1447   2.553   3.663   1.039  0.3865  0.0659  0.1888
   28POPC   C2H 1448   2.605   3.537   1.109 -0.0571 -0.2185  0.0093
   28POPC   C2I 1449   2.611   3.558   1.260  0.2997 -0.2555  0.0012
   28POPC   C2J 1450   2.640   3.429   1.337  0.5627 -0.2382 -0.0706
   28POPC   C2K 1451   2.628   3.440   1.489  0.0358 -0.2483 -0.1114
   28POPC   C2L 1452   2.709   3.326   1.551  0.2929  0.0149  0.0371
   28POPC   C2M 1453   2.700   3.329   1.704  0.3581  0.0173  0.0408
   28POPC   C2N 1454   2.803   3.425   1.765  0.0307  0.0326  0.5714
   28POPC   C2O 1455   2.753   3.463   1.904 -0.6945 -0.4851  0.4598
   28POPC   C2P 1456   2.790   3.353   2.004  0.0405 -0.7791 -0.1241
   29POPC   CN1 1457   1.444   0.597   5.828  0.0730 -0.0365 -0.0025
   29POPC   CN2 1458   1.214   0.652   5.906 -0.2371 -0.8791  0.3130
   29POPC   CN3 1459   1.388   0.645   0.055  0.0796 -0.5471  0.4812
   29POPC   NTM 1460   1.340   0.582   5.931  0.2485 -0.0693  0.1697
   29POPC    CA 1461   1.323   0.440   5.965 -0.0262 -0.0017  0.3150
   29POPC    CB 1462   1.194   0.361   5.938  0.0474  0.1172 -0.3957
   29POPC    OA 1463   1.071   0.402   5.997  0.0632  0.1316 -0.3723
   29POPC     P 1464   1.046   0.385   0.155  0.3530 -0.2993 -0.3699
   29POPC    OB 1465   1.126   0.267   0.195  0.1029 -0.2629  0.2408
   29POPC    OC 1466   0.904   0.401   0.195  0.4255 -0.1989 -0.1532
   29POPC    OD 1467   1.124   0.519   0.199 -0.1476 -0.2200  0.2924
   29POPC    CC 1468   1.145   0.515   0.340  0.5331 -0.6670  0.1826
   29POPC    CD 1469   1.163   0.649   0.411 -0.7794 -0.2125 -0.2947
   29POPC    OE 1470   1.222   0.639   0.541 -0.3461 -0.6134 -0.5166
   29POPC   C1A 1471   1.344   0.590   0.560  0.1836  0.8124 -0.0323
   29POPC    OF 1472   1.418   0.589   0.461 -0.2453  0.0603 -0.3643
   29POPC   C1B 1473   1.385   0.575   0.701 -0.1300  0.2337  0.0038
   29POPC   C1C 1474   1.354   0.454   0.789 -0.2816  0.0246 -0.3339
   29POPC   C1D 1475   1.450   0.337   0.768 -0.1914 -0.0179  0.2762
   29POPC   C1E 1476   1.388   0.217   0.840 -0.2011 -0.2540 -0.1221
   29POPC   C1F 1477   1.391   0.237   0.991  0.1969 -0.2409 -0.1286
   29POPC   C1G 1478   1.530   0.267   1.048 -0.2758  0.8515  0.5015
   29POPC   C1H 1479   1.534   0.255   1.201 -0.0219  0.1067  0.4432
   29POPC   C1I 1480   1.655   0.334   1.252  0.0801  0.0503  0.2901
   29POPC   C1J 1481   1.735   0.288   1.348  0.1062  0.2022  0.3403
   29POPC   C1K 1482   1.706   0.162   1.430 -0.2374  0.0799  0.0335
   29POPC   C1L 1483   1.756   0.170   1.574  0.3690  0.3470 -0.1859
   29POPC   C1M 1484   1.676   0.276   1.649 -0.0324 -0.0408 -0.0658
   29POPC   C1N 1485   1.727   0.292   1.792 -0.2314  0.1845 -0.0190
   29POPC   C1O 1486   1.667   0.410   1.869  0.4421  0.6469 -0.1895
   29POPC   C1P 1487   1.723   0.548   1.833  0.5188  0.7814  0.4245
   29POPC   C1Q 1488   1.661   0.646   1.932 -1.3501 -0.1508  0.2250
   29POPC   C1R 1489   1.733   0.637   2.067  0.2261 -0.0036 -0.5801
   29POPC    CE 1490   1.021   0.705   0.401 -0.5975  0.2252 -0.4317
   29POPC    OG 1491   0.923   0.613   0.449 -0.0759 -0.1386 -0.0540
   29POPC   C2A 1492   0.802   0.650   0.411  0.1787  0.8873  0.0970
   29POPC    OH 1493   0.774   0.750   0.345 -0.1899  0.6098 -0.1754
   29POPC   C2B 1494   0.705   0.572   0.492  0.6111 -0.1857 -0.3937
   29POPC   C2C 1495   0.635   0.610   0.623  0.1251 -0.2659 -0.6320
   29POPC   C2D 1496   0.543   0.497   0.669 -0.2128  0.0987 -0.4111
   29POPC   C2E 1497   0.454   0.552   0.781 -0.2811  0.2161 -0.5227
   29POPC   C2F 1498   0.359   0.445   0.835 -0.1885  0.3984  0.0140
   29POPC   C2G 1499   0.243   0.508   0.913 -0.1512  0.4630  0.0168
   29POPC   C2H 1500   0.140   0.405   0.958 -0.4667  0.9358  0.3777
   29POPC   C2I 1501   0.198   0.318   1.069 -0.9288  0.5511  0.3209
   29POPC   C2J 1502   0.210   0.387   1.205  0.2251  0.6058  0.1972
   29POPC   C2K 1503   0.283   0.311   1.317 -1.0192 -0.3223  0.3949
   29POPC   C2L 1504   0.247   0.357   1.458  0.0803 -0.1092  0.6135
   29POPC   C2M 1505   0.295   0.497   1.495 -0.5181  0.2972 -0.1272
   29POPC   C2N 1506   0.238   0.524   1.634  0.2408 -0.4046  0.3272
   29POPC   C2O 1507   0.090   0.561   1.621  0.2802 -0.3397  0.0663
   29POPC   C2P 1508   0.034   0.592   1.760  0.3168 -0.5609  0.1297
   30POPC   CN1 1509   3.646   2.769   0.079 -0.1643  0.0165 -0.1300
   30POPC   CN2 1510   3.476   2.908   0.175  0.0427  0.3606 -0.0573
   30POPC   CN3 1511   3.602   2.760   0.316 -0.0270 -0.4758 -0.3981
   30POPC   NTM 1512   3.542   2.777   0.183 -0.2412  0.2073 -0.2197
   30POPC    CA 1513   3.451   2.663   0.164 -0.0531 -0.0626  0.4576
   30POPC    CB 1514   3.340   2.680   0.059  0.0523  0.1005  0.3720
   30POPC    OA 1515   3.237   2.773   0.093 -0.4008 -0.2551 -0.0191
   30POPC     P 1516   3.132   2.719   0.203 -0.1536 -0.2808  0.2051
   30POPC    OB 1517   3.137   2.571   0.206  1.0061 -0.2696 -0.4716
   30POPC    OC 1518   2.998   2.781   0.191  0.2857  0.5739 -0.4049
   30POPC    OD 1519   3.194   2.762   0.345  0.4634 -0.2229 -0.0772
   30POPC    CC 1520   3.117   2.846   0.431  0.5339 -0.0537 -0.1796
   30POPC    CD 1521   3.109   2.999   0.436 -0.4213 -0.1138  0.1913
   30POPC    OE 1522   3.218   3.060   0.505 -0.3125  0.1620 -0.2216
   30POPC   C1A 1523   3.216   3.191   0.527  0.5959  0.1792 -0.2093
   30POPC    OF 1524   3.175   3.271   0.443 -0.1663  0.0716  0.0562
   30POPC   C1B 1525   3.317   3.224   0.630 -0.0647  0.3720  0.3820
   30POPC   C1C 1526   3.278   3.360   0.689 -0.1354  0.3270  0.4405
   30POPC   C1D 1527   3.175   3.341   0.800 -0.0622 -0.3453  0.3983
   30POPC   C1E 1528   3.135   3.461   0.885 -0.0040 -0.0804  0.0523
   30POPC   C1F 1529   3.036   3.416   0.993  0.3250  0.4865  0.6004
   30POPC   C1G 1530   3.094   3.294   1.066  0.3274  0.3595  0.3876
   30POPC   C1H 1531   3.011   3.251   1.187 -0.2259  0.0892 -0.0794
   30POPC   C1I 1532   2.892   3.162   1.153  0.3350 -0.6854 -0.0461
   30POPC   C1J 1533   2.831   3.086   1.243 -0.5723  0.0213 -0.0476
   30POPC   C1K 1534   2.881   3.044   1.382 -0.7688  0.5920  0.1971
   30POPC   C1L 1535   2.853   2.895   1.406 -0.3404  0.4852  0.0350
   30POPC   C1M 1536   2.931   2.836   1.523 -0.0033  0.5971 -0.1305
   30POPC   C1N 1537   2.910   2.910   1.655  0.1614  0.0204  0.2251
   30POPC   C1O 1538   2.955   2.837   1.782  0.0550 -0.1433  0.1689
   30POPC   C1P 1539   2.894   2.888   1.913 -0.7526 -0.5720 -0.0361
   30POPC   C1Q 1540   2.953   2.817   2.035 -0.5202 -0.1189  0.1174
   30POPC   C1R 1541   2.929   2.876   2.174 -0.1575  0.2157  0.0409
   30POPC    CE 1542   2.967   3.024   0.488 -0.3880  0.1183  0.1719
   30POPC    OG 1543   2.937   2.967   0.616  0.2200 -0.0655  0.2345
   30POPC   C2A 1544   2.814   2.974   0.665 -0.0100 -0.5813 -0.2742
   30POPC    OH 1545   2.721   3.029   0.607  0.1377 -0.0205  0.0161
   30POPC   C2B 1546   2.806   2.927   0.805 -0.5980 -0.1505 -0.1582
   30POPC   C2C 1547   2.862   2.791   0.849 -0.5296 -0.1515 -0.2475
   30POPC   C2D 1548   2.832   2.760   0.996  0.0804  0.1102 -0.0634
   30POPC   C2E 1549   2.874   2.618   1.034 -0.1978 -0.0855 -0.4875
   30POPC   C2F 1550   2.801   2.584   1.164 -0.0915 -0.3898 -0.5078
   30POPC   C2G 1551   2.874   2.471   1.237  0.2926  0.3026  0.1914
   30POPC   C2H 1552   2.819   2.463   1.380 -0.7183 -0.1837 -0.2123
   30POPC   C2I 1553   2.889   2.347   1.450  0.0792  0.0185 -0.6659
   30POPC   C2J 1554   3.042   2.360   1.447  0.1138 -0.2494 -0.1461
   30POPC   C2K 1555   3.121   2.251   1.520  0.2481 -0.4986 -0.6605
   30POPC   C2L 1556   3.101   2.238   1.671  0.0020 -0.6269 -0.7035
   30POPC   C2M 1557   3.171   2.122   1.742  0.0425 -0.0511  0.2160
   30POPC   C2N 1558   3.118   2.122   1.886  0.2060 -0.0269  0.2768
   30POPC   C2O 1559   2.994   2.032   1.884 -0.0658  0.3510 -0.0600
   30POPC   C2P 1560   2.921   2.054   2.016 -0.1431  0.3097 -0.0955
   31POPC   CN1 1561   4.830   5.198   0.890 -0.2537  0.0067  0.3899
   31POPC   CN2 1562   4.604   5.175   0.815  0.2183  0.1069  0.7497
   31POPC   CN3 1563   4.729   4.984   0.901 -0.5152  0.1044 -0.3571
   31POPC   NTM 1564   4.735   5.108   0.822  0.2624  0.0434 -0.3986
   31POPC    CA 1565   4.784   5.080   0.687  0.5641  0.1679 -0.3156
   31POPC    CB 1566   4.695   5.035   0.571 -0.2486  0.3836  0.2173
   31POPC    OA 1567   4.618   4.917   0.594  0.4119 -0.0430  0.2860
   31POPC     P 1568   4.465   4.928   0.545  0.2779 -0.2574  0.6543
   31POPC    OB 1569   4.445   4.794   0.485 -0.2358  0.3470 -0.5712
   31POPC    OC 1570   4.447   5.049   0.461 -0.0804 -0.4364  0.4676
   31POPC    OD 1571   4.401   4.947   0.691 -0.3880  0.8303  0.2318
   31POPC    CC 1572   4.287   4.864   0.713 -0.0063  0.1431 -0.3385
   31POPC    CD 1573   4.261   4.826   0.860 -0.0707  0.5419 -0.2460
   31POPC    OE 1574   4.165   4.722   0.878  0.6388 -0.1522 -0.4003
   31POPC   C1A 1575   4.209   4.598   0.860 -0.3630 -0.4879 -0.6070
   31POPC    OF 1576   4.310   4.575   0.793  0.3042  0.0121  0.2081
   31POPC   C1B 1577   4.112   4.497   0.907 -0.1932 -0.3098  0.1434
   31POPC   C1C 1578   4.125   4.489   1.059 -0.2573 -0.0246  0.1643
   31POPC   C1D 1579   4.246   4.406   1.102 -0.0456  0.3971  0.3834
   31POPC   C1E 1580   4.276   4.409   1.252  0.5137  0.5854  0.2718
   31POPC   C1F 1581   4.170   4.339   1.338  0.4186  0.0235 -0.2927
   31POPC   C1G 1582   4.217   4.315   1.481 -0.1970  0.1981 -0.0605
   31POPC   C1H 1583   4.120   4.265   1.588 -0.2183  0.2817 -0.0410
   31POPC   C1I 1584   4.197   4.258   1.720  0.0202  0.1056 -0.1888
   31POPC   C1J 1585   4.139   4.248   1.840  0.0496 -0.2778 -0.2056
   31POPC   C1K 1586   3.988   4.228   1.856 -0.0667  0.5537 -0.2431
   31POPC   C1L 1587   3.926   4.271   1.989 -0.3814 -0.0571 -0.1902
   31POPC   C1M 1588   3.907   4.422   2.007 -0.0488 -0.0640  0.2559
   31POPC   C1N 1589   3.801   4.475   2.104  0.0937 -1.0270  0.9477
   31POPC   C1O 1590   3.663   4.485   2.041  0.5722  0.1509  0.0573
   31POPC   C1P 1591   3.677   4.568   1.913  0.4181  0.3036  0.1380
   31POPC   C1Q 1592   3.673   4.719   1.935 -0.2699  0.3894 -0.5271
   31POPC   C1R 1593   3.527   4.767   1.939 -0.5122 -0.3674 -0.1277
   31POPC    CE 1594   4.246   4.962   0.929 -0.2092  0.1060  0.5866
   31POPC    OG 1595   4.265   4.951   1.070  0.1487  0.2717  0.5527
   31POPC   C2A 1596   4.361   5.018   1.133  0.2918  0.2398  0.3699
   31POPC    OH 1597   4.473   5.022   1.082  0.3476  0.0154  0.4766
   31POPC   C2B 1598   4.326   5.036   1.276  0.5100  0.3667  0.4075
   31POPC   C2C 1599   4.258   5.171   1.296 -0.8554 -0.2306 -0.0766
   31POPC   C2D 1600   4.220   5.195   1.442  0.3021  0.0645  0.1884
   31POPC   C2E 1601   4.160   5.332   1.474 -0.3859 -0.0089 -0.7534
   31POPC   C2F 1602   4.264   5.439   1.438 -0.2747  0.1577  0.0439
   31POPC   C2G 1603   4.188   5.570   1.414 -0.1481  0.1851 -0.2068
   31POPC   C2H 1604   4.292   5.681   1.424 -0.0481  0.0210  0.6322
   31POPC   C2I 1605   4.338   5.711   1.567 -0.0375  1.0115  0.4280
   31POPC   C2J 1606   4.449   5.816   1.560  0.2692  0.6650  0.0650
   31POPC   C2K 1607   4.482   5.860   1.703  0.6320 -0.0320  0.1976
   31POPC   C2L 1608   4.574   5.982   1.701  0.3851  0.1495 -0.2675
   31POPC   C2M 1609   4.611   6.027   1.842  0.2682 -0.1450 -0.1408
   31POPC   C2N 1610   4.628   6.178   1.858 -0.1636 -0.0826 -0.2742
   31POPC   C2O 1611   4.649   6.204   2.007 -0.0471 -0.1210 -0.2840
   31POPC   C2P 1612   4.538   6.160   2.103 -0.6745 -0.0347 -0.9650
   32POPC   CN1 1613   0.892   4.609   0.732  0.0639 -0.0873  0.0934
   32POPC   CN2 1614   1.113   4.528   0.681 -0.4545 -0.1571 -0.2744
   32POPC   CN3 1615   1.062   4.754   0.623 -0.5954  0.4072  0.2058
   32POPC   NTM 1616   1.005   4.619   0.639 -0.1950  0.1911 -0.1929
   32POPC    CA 1617   0.965   4.557   0.511  0.8181 -0.5704 -0.1551
   32POPC    CB 1618   0.851   4.620   0.432  0.8738 -0.2644  0.0038
   32POPC    OA 1619   0.888   4.750   0.387  0.0380 -0.0695 -0.1505
   32POPC     P 1620   0.757   4.843   0.383  0.0062 -0.1101 -0.0558
   32POPC    OB 1621   0.644   4.771   0.320  0.0160 -0.2621  0.1013
   32POPC    OC 1622   0.793   4.984   0.355 -0.6931  0.0437 -0.1908
   32POPC    OD 1623   0.732   4.841   0.542  0.2093  0.6648 -0.0099
   32POPC    CC 1624   0.612   4.918   0.563  0.0383  0.3006  0.3522
   32POPC    CD 1625   0.514   4.877   0.673  0.2167  0.0691  0.4281
   32POPC    OE 1626   0.431   4.760   0.677 -0.2577  0.4182  1.0393
   32POPC   C1A 1627   0.478   4.653   0.740  0.3542 -0.3537 -0.6607
   32POPC    OF 1628   0.594   4.640   0.779  0.2012  0.2387  0.0060
   32POPC   C1B 1629   0.379   4.543   0.742 -0.0547  0.0230 -0.1076
   32POPC   C1C 1630   0.260   4.581   0.831 -0.0842  0.0909 -0.1751
   32POPC   C1D 1631   0.298   4.625   0.972  0.3855 -0.4384 -0.1323
   32POPC   C1E 1632   0.328   4.508   1.066  0.6104 -0.2938 -0.0230
   32POPC   C1F 1633   0.337   4.544   1.215  0.2569  0.0181 -0.0769
   32POPC   C1G 1634   0.477   4.586   1.260  0.2536  0.4487 -0.4661
   32POPC   C1H 1635   0.473   4.596   1.413 -0.2254  0.5021 -0.4774
   32POPC   C1I 1636   0.617   4.592   1.466 -0.3042  0.5421 -0.2620
   32POPC   C1J 1637   0.630   4.579   1.598 -0.0136  0.1816 -0.3243
   32POPC   C1K 1638   0.501   4.551   1.675  0.2903 -0.6966 -0.1216
   32POPC   C1L 1639   0.516   4.578   1.825 -0.0550  0.1589 -0.2299
   32POPC   C1M 1640   0.390   4.538   1.901 -0.0096  0.3791 -0.0363
   32POPC   C1N 1641   0.388   4.576   2.049  0.5657 -0.2668  0.1429
   32POPC   C1O 1642   0.249   4.567   2.113  0.4152  0.2455 -0.1071
   32POPC   C1P 1643   0.162   4.687   2.078  0.1261  0.1146  0.1585
   32POPC   C1Q 1644   0.014   4.663   2.107  0.0206 -0.2351 -0.6525
   32POPC   C1R 1645   6.240   4.780   2.055  0.1167 -0.0511 -0.3911
   32POPC    CE 1646   0.420   4.998   0.670  0.3127  0.1470  0.6085
   32POPC    OG 1647   0.398   5.048   0.802 -0.0435 -0.3066  0.7253
   32POPC   C2A 1648   0.288   5.122   0.819 -0.3817 -0.6785  0.1815
   32POPC    OH 1649   0.245   5.179   0.719  0.3982 -0.2454  0.0863
   32POPC   C2B 1650   0.254   5.164   0.957 -0.5406 -0.4040  0.0586
   32POPC   C2C 1651   0.143   5.269   0.951  0.0126  0.1866 -0.0674
   32POPC   C2D 1652   0.075   5.276   1.088  0.3563 -0.0285  0.1132
   32POPC   C2E 1653   0.157   5.342   1.200  0.4904 -0.2801  0.1661
   32POPC   C2F 1654   0.185   5.490   1.171  0.1237 -0.1854  0.2849
   32POPC   C2G 1655   0.296   5.545   1.261  0.4109  0.0973 -0.2388
   32POPC   C2H 1656   0.277   5.511   1.409  0.7053 -0.1317 -0.2526
   32POPC   C2I 1657   0.377   5.577   1.504  0.1851 -0.1648  0.3211
   32POPC   C2J 1658   0.344   5.531   1.646  0.1331 -0.2853  0.2703
   32POPC   C2K 1659   0.442   5.589   1.748 -0.3192  0.1812  0.4436
   32POPC   C2L 1660   0.416   5.740   1.753  0.0358  0.2611 -0.0285
   32POPC   C2M 1661   0.511   5.797   1.859  0.1639  0.0405 -0.0224
   32POPC   C2N 1662   0.662   5.776   1.850  0.2196  0.2628  0.3593
   32POPC   C2O 1663   0.727   5.828   1.978  0.4024  0.7196  0.0812
   32POPC   C2P 1664   0.879   5.820   1.960  0.3195 -0.2657 -0.2150
   33POPC   CN1 1665   4.652   3.180   0.348  0.0548  0.0474 -0.6182
   33POPC   CN2 1666   4.723   3.386   0.464 -0.3069 -0.5642 -0.5192
   33POPC   CN3 1667   4.620   3.384   0.245 -0.6981  0.2379 -0.2359
   33POPC   NTM 1668   4.712   3.314   0.336 -0.1198  0.0994 -0.9118
   33POPC    CA 1669   4.840   3.304   0.265  0.2834 -0.3004 -0.1393
   33POPC    CB 1670   4.969   3.235   0.310  0.3724  0.0034  0.0815
   33POPC    OA 1671   4.946   3.107   0.370 -0.0570  0.0471  0.0129
   33POPC     P 1672   5.078   3.016   0.389 -0.1402 -0.0596  0.0762
   33POPC    OB 1673   5.180   3.047   0.287  0.1684  0.3215  0.4961
   33POPC    OC 1674   5.038   2.879   0.426 -0.0762 -0.0420  0.2119
   33POPC    OD 1675   5.131   3.079   0.528  0.1796 -0.2141  0.0237
   33POPC    CC 1676   5.063   3.031   0.644 -0.1334 -0.1192 -0.1184
   33POPC    CD 1677   4.935   3.102   0.690 -0.0691 -0.3169  0.3674
   33POPC    OE 1678   4.932   3.139   0.828 -0.1117 -0.4260  0.3954
   33POPC   C1A 1679   4.887   3.260   0.858  0.3165 -0.0946 -0.2916
   33POPC    OF 1680   4.828   3.320   0.767 -0.3748  0.3445  0.4330
   33POPC   C1B 1681   4.886   3.294   1.002 -0.5858 -0.3914 -0.2258
   33POPC   C1C 1682   4.764   3.231   1.070 -0.8085 -0.2539 -0.4948
   33POPC   C1D 1683   4.770   3.260   1.220  0.2948  0.1046 -0.6012
   33POPC   C1E 1684   4.630   3.236   1.275  0.2956 -0.0220 -0.6539
   33POPC   C1F 1685   4.623   3.234   1.428 -0.5908 -0.3637 -0.6933
   33POPC   C1G 1686   4.684   3.117   1.505  0.5662  0.4889 -0.2907
   33POPC   C1H 1687   4.646   3.123   1.653  0.0166  0.4402 -0.4284
   33POPC   C1I 1688   4.748   3.047   1.738 -0.2499  0.7215  0.1457
   33POPC   C1J 1689   4.700   2.994   1.850  0.0269  0.4418  0.1339
   33POPC   C1K 1690   4.551   3.009   1.883 -0.1996  0.1371 -0.7177
   33POPC   C1L 1691   4.540   3.030   2.034 -0.1592 -0.3133 -0.6509
   33POPC   C1M 1692   4.397   3.009   2.083 -0.2216  0.1430 -0.6370
   33POPC   C1N 1693   4.328   3.144   2.064 -0.2591  0.1213 -0.6545
   33POPC   C1O 1694   4.181   3.142   2.108 -0.1779 -0.2148 -0.3942
   33POPC   C1P 1695   4.092   3.080   2.000 -0.2475 -0.5600 -0.1394
   33POPC   C1Q 1696   3.941   3.097   2.019 -0.0366  0.2628  0.8809
   33POPC   C1R 1697   3.877   3.231   1.983 -0.3299  0.0011  0.4219
   33POPC    CE 1698   4.831   2.994   0.659 -0.4431  0.1655 -0.0561
   33POPC    OG 1699   4.823   2.895   0.761  0.0233  0.3115  0.1263
   33POPC   C2A 1700   4.705   2.836   0.780  0.2658 -0.1878  0.0856
   33POPC    OH 1701   4.606   2.871   0.716  0.0565 -0.5938  0.1818
   33POPC   C2B 1702   4.709   2.738   0.891 -0.1387 -0.6331 -0.2858
   33POPC   C2C 1703   4.579   2.710   0.968 -0.0665 -0.5355 -0.1277
   33POPC   C2D 1704   4.608   2.626   1.093 -0.4061  0.0480  0.3452
   33POPC   C2E 1705   4.690   2.695   1.202  0.5573 -0.5508  0.0138
   33POPC   C2F 1706   4.664   2.609   1.326  0.8479 -0.2655  0.2764
   33POPC   C2G 1707   4.609   2.682   1.448  0.1140 -0.1713 -0.1007
   33POPC   C2H 1708   4.583   2.582   1.561  0.1776 -0.0204  0.0497
   33POPC   C2I 1709   4.509   2.647   1.678 -0.3128  0.0544 -0.2990
   33POPC   C2J 1710   4.478   2.536   1.778  0.6047  0.3658  0.3442
   33POPC   C2K 1711   4.400   2.592   1.898  0.2474  0.2105  0.1860
   33POPC   C2L 1712   4.372   2.478   1.996  0.2497 -0.2071 -0.2985
   33POPC   C2M 1713   4.258   2.389   1.944  0.0630  0.3986 -0.9516
   33POPC   C2N 1714   4.228   2.276   2.044 -0.1720  0.4630 -0.9480
   33POPC   C2O 1715   4.119   2.179   2.001  0.0077  0.0330 -0.4370
   33POPC   C2P 1716   4.098   2.075   2.111  0.3019  0.2949 -0.1326
   34POPC   CN1 1717   0.117   0.465   0.517 -0.0857 -0.5329  0.2299
   34POPC   CN2 1718   6.305   0.673   0.511  0.0151  0.2585 -0.6507
   34POPC   CN3 1719   6.192   0.472   0.550  0.6000 -0.4160 -0.7148
   34POPC   NTM 1720   6.303   0.531   0.474  0.5039  0.1839 -0.3995
   34POPC    CA 1721   6.288   0.511   0.329  0.1096  0.2293 -0.3655
   34POPC    CB 1722   6.308   0.372   0.267  0.2270  0.3259 -0.5448
   34POPC    OA 1723   6.234   0.268   0.330  0.5714  0.3520 -0.0935
   34POPC     P 1724   6.291   0.121   0.295  0.0076  0.0683  0.1653
   34POPC    OB 1725   0.036   0.116   0.158 -0.2329 -0.1433  0.0756
   34POPC    OC 1726   6.173   0.042   0.336  0.1971 -0.3607 -0.1078
   34POPC    OD 1727   0.099   0.126   0.404  0.3367  0.0699 -0.1892
   34POPC    CC 1728   0.051   0.085   0.532  0.0636  0.3574 -0.1994
   34POPC    CD 1729   0.145   0.087   0.653  0.2983 -0.0156 -0.3751
   34POPC    OE 1730   0.258   6.340   0.640  0.1074 -0.3334  0.0695
   34POPC   C1A 1731   0.372   0.045   0.588 -0.0733 -0.3139 -0.3089
   34POPC    OF 1732   0.375   0.156   0.535  0.2590 -0.1962 -0.0449
   34POPC   C1B 1733   0.490   6.297   0.600  0.0634 -0.0432  0.3709
   34POPC   C1C 1734   0.554   6.289   0.739  0.8610  0.5803  0.0438
   34POPC   C1D 1735   0.492   6.172   0.815 -0.1342  0.7672 -0.4556
   34POPC   C1E 1736   0.517   6.162   0.965  0.6886  0.2612 -0.6182
   34POPC   C1F 1737   0.459   6.291   1.022 -0.4225 -0.5445  0.1173
   34POPC   C1G 1738   0.543   0.010   1.135 -0.1779 -0.1881 -0.2467
   34POPC   C1H 1739   0.557   6.270   1.265 -0.3154  0.2959  0.0684
   34POPC   C1I 1740   0.424   6.269   1.340 -0.3583  0.3728 -0.0052
   34POPC   C1J 1741   0.422   6.274   1.473 -0.2859  0.5964 -0.0125
   34POPC   C1K 1742   0.545   6.288   1.562 -0.2760  0.1008  0.0563
   34POPC   C1L 1743   0.518   0.033   1.687  0.1551  0.0352  0.1964
   34POPC   C1M 1744   0.642   0.046   1.775 -0.0443 -0.4641  0.5515
   34POPC   C1N 1745   0.619   0.118   1.908  0.3238  0.0559  0.3366
   34POPC   C1O 1746   0.511   0.053   1.994 -0.2755  0.3484 -0.1872
   34POPC   C1P 1747   0.448   0.160   2.084 -0.0426  0.4098 -0.0959
   34POPC   C1Q 1748   0.332   0.234   2.017  0.3197  0.2966 -0.8674
   34POPC   C1R 1749   0.308   0.358   2.104  0.1632 -0.8540  0.7813
   34POPC    CE 1750   0.055   0.045   0.769  0.0508 -0.0007 -0.5621
   34POPC    OG 1751   6.271   0.127   0.840  0.1763 -0.3804  0.0530
   34POPC   C2A 1752   6.235   0.082   0.959  0.1073  0.2489  0.2750
   34POPC    OH 1753   6.300   6.329   1.007 -0.1796 -0.2947 -0.3801
   34POPC   C2B 1754   6.145   0.175   1.031 -0.0427  0.4127 -0.1241
   34POPC   C2C 1755   6.091   0.126   1.166  0.3600  0.0863 -0.0796
   34POPC   C2D 1756   5.992   0.228   1.222  0.0445 -0.2470 -0.0288
   34POPC   C2E 1757   5.962   0.192   1.368  0.2106  0.2249  0.1239
   34POPC   C2F 1758   5.884   0.061   1.376 -0.4779  0.6334  0.2288
   34POPC   C2G 1759   5.851   0.030   1.522 -0.0336  0.0008  0.1990
   34POPC   C2H 1760   5.980   6.324   1.590 -0.0274 -0.2448  0.0239
   34POPC   C2I 1761   5.963   6.294   1.739 -0.2237  0.5556  0.1706
   34POPC   C2J 1762   6.099   6.252   1.797 -0.2639 -0.3201 -0.3518
   34POPC   C2K 1763   6.091   6.201   1.941  0.4329  0.6877  0.0518
   34POPC   C2L 1764   6.199   6.099   1.977  0.2967  0.4072 -0.3247
   34POPC   C2M 1765   6.178   6.005   2.096 -0.2279  0.2011 -0.5761
   34POPC   C2N 1766   6.297   5.917   2.136 -0.2713  0.3201 -0.1793
   34POPC   C2O 1767   6.247   5.800   2.221  0.6539 -0.0123 -0.0785
   34POPC   C2P 1768   0.047   5.701   2.259  0.0880 -0.6376 -0.0539
   35POPC   CN1 1769   0.310   4.589   0.285  0.1935  0.1003  0.5121
   35POPC   CN2 1770   0.215   4.793   0.351 -0.4408  0.2442 -0.3222
   35POPC   CN3 1771   0.144   4.591   0.462 -0.2601 -0.5794 -0.3912
   35POPC   NTM 1772   0.186   4.650   0.334 -0.0021  0.1123 -0.0007
   35POPC    CA 1773   0.083   4.629   0.230 -0.1848 -0.3072  0.2621
   35POPC    CB 1774   6.245   4.657   0.256 -0.2933  0.1964 -0.8867
   35POPC    OA 1775   6.204   4.784   0.307  0.0936  0.0108 -0.1139
   35POPC     P 1776   6.045   4.797   0.285  0.0693 -0.0862  0.0040
   35POPC    OB 1777   6.000   4.744   0.154 -0.8376 -0.2576  0.3764
   35POPC    OC 1778   5.987   4.921   0.340  0.2807 -0.0231  0.0875
   35POPC    OD 1779   5.995   4.678   0.380 -0.6035  0.4172  0.2822
   35POPC    CC 1780   5.938   4.702   0.510 -0.3681 -0.0629  0.4781
   35POPC    CD 1781   6.017   4.644   0.627  0.5347 -0.3773 -0.2671
   35POPC    OE 1782   5.951   4.656   0.754  0.3885 -0.0513 -0.3731
   35POPC   C1A 1783   5.856   4.566   0.780  0.1558  0.1919 -0.3729
   35POPC    OF 1784   5.832   4.468   0.709 -0.3493 -0.1940  0.3240
   35POPC   C1B 1785   5.787   4.597   0.907  0.3018 -0.2245 -0.1894
   35POPC   C1C 1786   5.649   4.660   0.887  0.0510 -0.5437  0.4964
   35POPC   C1D 1787   5.587   4.726   1.010 -0.4828  0.0653 -0.0886
   35POPC   C1E 1788   5.565   4.627   1.125 -0.3401 -0.2028 -0.2905
   35POPC   C1F 1789   5.560   4.681   1.268 -0.0078  0.3305 -0.4757
   35POPC   C1G 1790   5.679   4.633   1.351 -0.4297  0.4204  0.1874
   35POPC   C1H 1791   5.709   4.723   1.471  0.3035  0.8434 -0.3081
   35POPC   C1I 1792   5.797   4.670   1.585 -0.3079  0.1068 -0.1750
   35POPC   C1J 1793   5.838   4.759   1.675  0.5170 -0.3592 -0.0862
   35POPC   C1K 1794   5.815   4.909   1.657  0.4072 -0.3675 -0.0113
   35POPC   C1L 1795   5.863   4.979   1.785 -0.1311 -0.1186  0.0613
   35POPC   C1M 1796   5.836   5.127   1.760 -0.7182 -0.2157  0.1076
   35POPC   C1N 1797   5.829   5.195   1.897 -0.0401  0.4412 -0.1755
   35POPC   C1O 1798   5.804   5.345   1.914 -0.2648  0.3916 -0.0718
   35POPC   C1P 1799   5.665   5.389   1.869 -0.1468  0.4117 -0.4216
   35POPC   C1Q 1800   5.557   5.328   1.959  0.2554 -0.0578 -0.2486
   35POPC   C1R 1801   5.418   5.373   1.912  0.1809 -0.2934 -0.2541
   35POPC    CE 1802   6.154   4.711   0.626  0.2317  0.2380 -0.5937
   35POPC    OG 1803   6.150   4.854   0.631 -0.6990  0.1975 -0.0906
   35POPC   C2A 1804   6.263   4.924   0.625 -0.4146 -0.2198  0.3683
   35POPC    OH 1805   0.061   4.877   0.660  0.1083  0.5753 -0.1576
   35POPC   C2B 1806   6.233   5.063   0.582  0.6335  0.0289  0.4276
   35POPC   C2C 1807   6.286   5.073   0.439 -0.6430 -0.4892 -0.0949
   35POPC   C2D 1808   6.284   5.218   0.390 -0.2946 -0.4293  0.0641
   35POPC   C2E 1809   0.074   5.312   0.457 -0.6321  0.0214 -0.0599
   35POPC   C2F 1810   0.064   5.459   0.416 -0.0815 -0.0234 -0.3627
   35POPC   C2G 1811   6.251   5.537   0.466 -0.0436 -0.0136 -0.2857
   35POPC   C2H 1812   6.226   5.520   0.616  0.1899  0.1200 -0.2311
   35POPC   C2I 1813   6.107   5.610   0.648  0.0300 -0.2880  0.3401
   35POPC   C2J 1814   6.122   5.655   0.793  0.3180  0.1643  0.1719
   35POPC   C2K 1815   6.101   5.556   0.908 -0.6068  0.3190  0.1424
   35POPC   C2L 1816   6.109   5.608   1.052  0.1258 -0.1208  0.2657
   35POPC   C2M 1817   6.080   5.497   1.153  0.4649 -0.3368  0.1270
   35POPC   C2N 1818   6.105   5.564   1.289 -0.0769  0.3320 -0.0950
   35POPC   C2O 1819   6.070   5.470   1.405  0.3130 -0.0487 -0.2796
   35POPC   C2P 1820   6.124   5.328   1.390 -0.5360 -0.4311  0.1810
   36POPC   CN1 1821   0.834   2.781   0.220  0.0259 -0.1458  0.4745
   36POPC   CN2 1822   0.612   2.736   0.244  0.4103  0.3441  0.5720
   36POPC   CN3 1823   0.707   2.755   0.019 -0.0594  0.1556  0.3122
   36POPC   NTM 1824   0.705   2.809   0.156  0.2065  0.2515  0.2796
   36POPC    CA 1825   0.682   2.955   0.154 -0.1776  0.1955  0.4506
   36POPC    CB 1826   0.590   3.014   0.048  0.3020 -0.2500 -0.2209
   36POPC    OA 1827   0.465   2.946   0.040 -0.1265  0.4730  0.2337
   36POPC     P 1828   0.377   2.980   5.910  0.1042 -0.0497 -0.0622
   36POPC    OB 1829   0.455   2.915   5.802 -0.3034 -0.2553 -0.2389
   36POPC    OC 1830   0.366   3.127   5.914  0.3292 -0.0438  0.3059
   36POPC    OD 1831   0.241   2.900   5.946  0.0303  0.0576 -0.1012
   36POPC    CC 1832   0.153   2.968   0.035  0.4610  0.0123  0.3611
   36POPC    CD 1833   0.101   2.876   0.146 -0.4252 -0.3147 -0.3206
   36POPC    OE 1834   6.297   2.924   0.218 -0.2415 -0.1499 -0.1383
   36POPC   C1A 1835   6.222   2.834   0.282 -0.4016  0.4885  0.5778
   36POPC    OF 1836   6.227   2.717   0.246 -0.6637  0.4210  0.7552
   36POPC   C1B 1837   6.126   2.877   0.387 -0.6132  0.3093  0.4564
   36POPC   C1C 1838   6.185   2.840   0.523  0.4122 -0.0087 -0.0692
   36POPC   C1D 1839   6.083   2.868   0.633  0.4573 -0.2075  0.0235
   36POPC   C1E 1840   6.146   2.842   0.770 -0.0658  0.0607  0.3157
   36POPC   C1F 1841   6.045   2.867   0.883 -0.5403 -0.0854 -0.0740
   36POPC   C1G 1842   6.100   2.823   1.018 -0.1521  0.3380 -0.0921
   36POPC   C1H 1843   6.003   2.861   1.130 -0.1967 -0.1357  0.0351
   36POPC   C1I 1844   5.909   2.756   1.189  0.1814 -0.4838  0.0242
   36POPC   C1J 1845   5.913   2.743   1.321 -0.0914  0.5455  0.1441
   36POPC   C1K 1846   5.993   2.837   1.412  0.2197  0.6800 -0.2648
   36POPC   C1L 1847   5.996   2.792   1.558 -0.0614  0.1301 -0.4269
   36POPC   C1M 1848   6.093   2.677   1.585 -0.4158 -0.0398  0.1356
   36POPC   C1N 1849   6.119   2.636   1.730  0.1658  0.4438  0.1707
   36POPC   C1O 1850   6.004   2.546   1.777  0.2418  0.3424  0.1634
   36POPC   C1P 1851   6.000   2.517   1.927  0.3319 -0.2980  0.0431
   36POPC   C1Q 1852   5.893   2.419   1.975  0.1688 -0.3369 -0.3910
   36POPC   C1R 1853   5.898   2.276   1.922 -0.1438 -0.5197  0.0595
   36POPC    CE 1854   0.228   2.853   0.226 -0.6737  0.2336  0.2447
   36POPC    OG 1855   0.255   2.955   0.323  0.1208  0.1726  0.0958
   36POPC   C2A 1856   0.312   2.924   0.439 -0.6026  0.1078  0.4346
   36POPC    OH 1857   0.347   2.810   0.470 -0.2911  0.0151 -0.2427
   36POPC   C2B 1858   0.317   3.032   0.540  0.3368  0.6811 -0.2138
   36POPC   C2C 1859   0.178   3.056   0.600  0.2346 -0.8240  0.2009
   36POPC   C2D 1860   0.176   3.167   0.705  0.0068 -0.3467 -0.3069
   36POPC   C2E 1861   0.038   3.176   0.771  0.0029  0.0565 -0.3650
   36POPC   C2F 1862   0.020   3.277   0.885  0.3299  0.0215 -0.2811
   36POPC   C2G 1863   0.004   3.424   0.845  0.5892  0.1430  0.0663
   36POPC   C2H 1864   0.003   3.509   0.972 -0.5123  0.1726  0.0479
   36POPC   C2I 1865   0.136   3.497   1.046 -0.4385  0.3280 -0.0567
   36POPC   C2J 1866   0.102   3.509   1.195  0.3772  0.3339  0.1367
   36POPC   C2K 1867   0.230   3.492   1.277  0.4552 -0.0413 -0.0607
   36POPC   C2L 1868   0.194   3.464   1.423  0.0622  0.1608 -0.1173
   36POPC   C2M 1869   0.162   3.590   1.503  0.1626  0.1018  0.0164
   36POPC   C2N 1870   0.143   3.541   1.646 -0.2230 -0.1605 -0.1208
   36POPC   C2O 1871   0.144   3.648   1.756 -0.0606 -0.4353  0.1469
   36POPC   C2P 1872   0.211   3.609   1.888  0.5949  0.2604  0.0205
   37POPC   CN1 1873   4.754   2.658   0.464  0.0123  0.6915 -0.2809
   37POPC   CN2 1874   4.628   2.562   0.298  0.4277 -0.2782 -0.0303
   37POPC   CN3 1875   4.851   2.489   0.336 -0.4457 -0.6038 -0.0982
   37POPC   NTM 1876   4.765   2.607   0.326  0.3358 -0.0170 -0.0003
   37POPC    CA 1877   4.815   2.714   0.238 -0.0023  0.1563  0.0168
   37POPC    CB 1878   4.820   2.701   0.086 -0.0922  0.0384  0.0233
   37POPC    OA 1879   4.687   2.684   0.038  0.0916 -0.2251 -0.3968
   37POPC     P 1880   4.674   2.700   5.878 -0.2680  0.5742 -0.2933
   37POPC    OB 1881   4.762   2.806   5.823  0.5020 -0.0080 -0.1977
   37POPC    OC 1882   4.528   2.698   5.855 -0.2667  0.4088 -0.2892
   37POPC    OD 1883   4.724   2.548   5.860  0.1763  0.5415  1.1204
   37POPC    CC 1884   4.622   2.455   5.897 -0.1995  0.2579 -0.5594
   37POPC    CD 1885   4.657   2.307   5.905  0.1543  0.3705  0.0353
   37POPC    OE 1886   4.546   2.218   5.885  0.3865  0.0323  0.2288
   37POPC   C1A 1887   4.568   2.088   5.875 -0.2575 -0.0186 -0.5829
   37POPC    OF 1888   4.674   2.047   5.828  0.1535  0.1782  0.1544
   37POPC   C1B 1889   4.450   1.999   5.890 -0.0536 -0.2364 -0.2464
   37POPC   C1C 1890   4.474   1.919   0.018  0.1627 -0.1243 -0.2150
   37POPC   C1D 1891   4.349   1.843   0.064  0.7023 -0.6294  0.4480
   37POPC   C1E 1892   4.279   1.754   5.961  0.0860  0.3891 -0.0426
   37POPC   C1F 1893   4.368   1.647   5.897 -0.3887  0.3353 -0.6188
   37POPC   C1G 1894   4.286   1.532   5.837 -0.5085  0.0606  0.0676
   37POPC   C1H 1895   4.196   1.459   5.937 -0.0269 -0.1894  0.3241
   37POPC   C1I 1896   4.149   1.327   5.874 -0.3847 -0.1347  0.4743
   37POPC   C1J 1897   4.035   1.265   5.904  0.2882 -1.3411  0.5632
   37POPC   C1K 1898   3.952   1.337   0.011  0.4751 -0.3095  0.0258
   37POPC   C1L 1899   3.898   1.233   0.110  0.4446 -0.0433  0.2891
   37POPC   C1M 1900   3.819   1.315   0.212  0.0142 -0.1777  0.0683
   37POPC   C1N 1901   3.772   1.214   0.317  0.1417 -0.3198 -0.0106
   37POPC   C1O 1902   3.680   1.252   0.433  0.0379 -0.2394 -0.1198
   37POPC   C1P 1903   3.747   1.353   0.526  0.0479 -0.5314  0.1904
   37POPC   C1Q 1904   3.714   1.367   0.675 -0.0025  0.1877  0.1172
   37POPC   C1R 1905   3.564   1.391   0.694 -0.0347  0.1953 -0.1362
   37POPC    CE 1906   4.734   2.295   0.036 -0.0363 -0.4722  0.0788
   37POPC    OG 1907   4.656   2.282   0.155  0.0358 -0.0222  0.1788
   37POPC   C2A 1908   4.662   2.172   0.230  0.0345 -0.2514 -0.1536
   37POPC    OH 1909   4.745   2.087   0.197  0.0609  0.0204 -0.7908
   37POPC   C2B 1910   4.557   2.177   0.335 -0.0937  0.2753 -0.3025
   37POPC   C2C 1911   4.604   2.221   0.473 -0.0799  0.1458 -0.2657
   37POPC   C2D 1912   4.485   2.228   0.570  0.3003  0.2551  0.2002
   37POPC   C2E 1913   4.378   2.335   0.549  0.0515 -0.0776 -0.2410
   37POPC   C2F 1914   4.251   2.314   0.632 -0.0995 -0.1863 -0.4966
   37POPC   C2G 1915   4.290   2.359   0.773 -0.6159 -0.2141 -0.3451
   37POPC   C2H 1916   4.189   2.311   0.877 -0.2143  0.7639  0.5131
   37POPC   C2I 1917   4.236   2.323   1.023  0.4732  0.3271  0.3323
   37POPC   C2J 1918   4.226   2.467   1.071  0.3139  0.3652  0.1879
   37POPC   C2K 1919   4.255   2.491   1.220  0.3082 -0.2303  0.2866
   37POPC   C2L 1920   4.162   2.409   1.308  0.2123 -0.3109  0.1119
   37POPC   C2M 1921   4.203   2.406   1.456  0.6628 -0.2531 -0.0129
   37POPC   C2N 1922   4.109   2.320   1.540 -0.2362  0.1515 -0.5866
   37POPC   C2O 1923   4.185   2.187   1.530  0.0142  0.2115  0.4377
   37POPC   C2P 1924   4.168   2.092   1.649  1.1102  0.1068  0.5152
   38POPC   CN1 1925   2.854   1.922   0.296 -0.6270  0.0454 -0.1779
   38POPC   CN2 1926   2.929   1.719   0.381  0.3358 -0.2210  0.1573
   38POPC   CN3 1927   3.091   1.880   0.280 -0.0473 -0.6575 -0.3273
   38POPC   NTM 1928   2.957   1.819   0.277 -0.4393  0.1442  0.2918
   38POPC    CA 1929   2.948   1.746   0.149  0.1670 -0.3644  0.5299
   38POPC    CB 1930   3.050   1.642   0.104  0.4801  0.2663 -0.2323
   38POPC    OA 1931   3.092   1.547   0.202 -0.5747 -0.0999 -0.1265
   38POPC     P 1932   3.188   1.432   0.143 -0.1270  0.0532  0.2929
   38POPC    OB 1933   3.135   1.395   0.009 -0.3944  0.2532  0.3425
   38POPC    OC 1934   3.191   1.333   0.253 -0.1234 -0.6969 -0.3738
   38POPC    OD 1935   3.318   1.527   0.146  0.0531 -0.1596 -0.4252
   38POPC    CC 1936   3.399   1.496   0.260 -0.5669 -0.7901 -0.1442
   38POPC    CD 1937   3.371   1.583   0.383  0.1791 -0.5709 -0.1202
   38POPC    OE 1938   3.495   1.611   0.448 -0.1290  0.3345  0.0886
   38POPC   C1A 1939   3.558   1.727   0.429  0.3125 -0.0062 -0.5712
   38POPC    OF 1940   3.529   1.798   0.333 -0.1172  0.0990 -0.3653
   38POPC   C1B 1941   3.682   1.724   0.509  0.0002 -0.0302 -0.0830
   38POPC   C1C 1942   3.734   1.863   0.547  0.1451 -0.2119  0.3991
   38POPC   C1D 1943   3.658   1.940   0.655  0.0140  0.2364 -0.0083
   38POPC   C1E 1944   3.528   2.007   0.611 -0.3731 -0.2859  0.3357
   38POPC   C1F 1945   3.467   2.070   0.736  0.0951  0.6029  0.1243
   38POPC   C1G 1946   3.335   2.140   0.702 -0.0632 -0.0654 -0.6650
   38POPC   C1H 1947   3.357   2.291   0.694 -0.4144  0.0471  0.2898
   38POPC   C1I 1948   3.290   2.357   0.573 -0.7040 -0.8261 -0.0337
   38POPC   C1J 1949   3.250   2.483   0.578  0.1975 -0.5441  0.2301
   38POPC   C1K 1950   3.261   2.571   0.703 -0.1726 -0.4543  0.2012
   38POPC   C1L 1951   3.385   2.661   0.707 -0.2129 -0.3809 -0.1993
   38POPC   C1M 1952   3.393   2.741   0.837  0.3335  0.3566 -0.6788
   38POPC   C1N 1953   3.264   2.819   0.863  0.3717  0.0832  0.3553
   38POPC   C1O 1954   3.249   2.912   0.984  0.1263  0.1155  0.2998
   38POPC   C1P 1955   3.253   2.835   1.117  0.2085 -0.2417  0.0939
   38POPC   C1Q 1956   3.210   2.915   1.241  0.1505  0.3446 -0.2964
   38POPC   C1R 1957   3.328   2.999   1.289  0.2487  0.1575 -0.2089
   38POPC    CE 1958   3.271   1.531   0.488 -0.7083  0.3043 -0.5129
   38POPC    OG 1959   3.227   1.627   0.583  0.2128 -0.2372  0.4795
   38POPC   C2A 1960   3.130   1.599   0.669  0.6819 -0.8198  0.8286
   38POPC    OH 1961   3.050   1.509   0.642  0.2354 -0.0429 -0.5542
   38POPC   C2B 1962   3.105   1.703   0.770 -0.4231 -0.1100 -0.1481
   38POPC   C2C 1963   3.195   1.691   0.893 -0.3872  0.8120 -0.0763
   38POPC   C2D 1964   3.342   1.723   0.865 -0.1675  0.2888  0.4381
   38POPC   C2E 1965   3.437   1.674   0.973 -0.0839 -0.1720  0.1572
   38POPC   C2F 1966   3.581   1.691   0.926 -0.1905 -0.1396 -0.1602
   38POPC   C2G 1967   3.680   1.606   1.007 -0.3154 -0.1706 -0.0400
   38POPC   C2H 1968   3.824   1.613   0.957 -0.3117  0.0935  0.0058
   38POPC   C2I 1969   3.903   1.507   1.033 -0.1744 -0.0050 -0.2729
   38POPC   C2J 1970   3.923   1.535   1.182 -0.0532 -0.2291 -0.2464
   38POPC   C2K 1971   4.017   1.429   1.241  0.1767  0.1262  0.0319
   38POPC   C2L 1972   4.021   1.432   1.394  0.4214  0.5138  0.0178
   38POPC   C2M 1973   4.143   1.358   1.448  0.0391 -0.0938  0.0581
   38POPC   C2N 1974   4.129   1.320   1.596  0.2088  0.3743  0.1977
   38POPC   C2O 1975   4.214   1.198   1.635 -0.2807 -0.0584 -0.0767
   38POPC   C2P 1976   4.149   1.070   1.583 -0.0721 -0.3782  0.4496
   39POPC   CN1 1977   2.672   1.173   0.398  0.0059  0.2499 -0.1365
   39POPC   CN2 1978   2.907   1.193   0.343  0.3468  0.1914 -0.4980
   39POPC   CN3 1979   2.788   1.380   0.413  0.0680  0.4496 -0.2970
   39POPC   NTM 1980   2.775   1.257   0.334  0.2764  0.1380  0.1466
   39POPC    CA 1981   2.739   1.273   0.192 -0.0740  0.3442  0.2565
   39POPC    CB 1982   2.637   1.378   0.147 -0.0062  0.1095 -0.4503
   39POPC    OA 1983   2.680   1.514   0.153  0.6432 -0.0980 -0.3005
   39POPC     P 1984   2.605   1.591   0.034  0.0366 -0.1489  0.0430
   39POPC    OB 1985   2.605   1.513   5.908 -1.0927  0.0344 -0.0846
   39POPC    OC 1986   2.667   1.726   0.038 -0.5531  0.1345 -0.1406
   39POPC    OD 1987   2.458   1.606   0.099  0.0123  0.3277 -0.1139
   39POPC    CC 1988   2.472   1.698   0.207  0.0620  0.1754  0.0106
   39POPC    CD 1989   2.344   1.726   0.287  0.1193 -0.1183  0.2068
   39POPC    OE 1990   2.239   1.799   0.221  0.2043  0.0799  0.2902
   39POPC   C1A 1991   2.151   1.728   0.151  0.8168 -0.2572 -0.1448
   39POPC    OF 1992   2.157   1.607   0.130 -0.3390 -0.2615 -0.5046
   39POPC   C1B 1993   2.056   1.805   0.068  0.4674 -0.5063  0.0237
   39POPC   C1C 1994   1.920   1.735   0.057  0.0450  0.3837 -0.5151
   39POPC   C1D 1995   1.854   1.710   0.193  0.4628 -0.0542 -0.3912
   39POPC   C1E 1996   1.727   1.630   0.162  0.1866  0.3904 -0.4135
   39POPC   C1F 1997   1.635   1.620   0.283  0.3592  0.0220 -0.3121
   39POPC   C1G 1998   1.703   1.541   0.395 -0.1286  0.2241  0.1316
   39POPC   C1H 1999   1.619   1.524   0.522 -0.1152  0.8768  0.2274
   39POPC   C1I 2000   1.692   1.430   0.618 -0.2077  0.0548 -0.5021
   39POPC   C1J 2001   1.688   1.458   0.748  0.1897  0.9050 -0.6733
   39POPC   C1K 2002   1.592   1.570   0.791 -0.0823  0.4546 -0.0981
   39POPC   C1L 2003   1.548   1.539   0.934  0.2395 -0.5683 -0.2139
   39POPC   C1M 2004   1.658   1.572   1.036 -0.0884  0.2833 -0.1345
   39POPC   C1N 2005   1.680   1.488   1.161 -0.3881  0.0926 -0.2090
   39POPC   C1O 2006   1.751   1.355   1.135 -0.2706  0.1980 -0.4298
   39POPC   C1P 2007   1.903   1.377   1.133 -0.2394  0.0882  0.2553
   39POPC   C1Q 2008   1.960   1.247   1.075 -0.2822  0.4942 -0.7149
   39POPC   C1R 2009   1.906   1.210   0.937  0.1950 -1.2987 -0.4363
   39POPC    CE 2010   2.397   1.807   0.405 -0.2951  0.0650  0.2696
   39POPC    OG 2011   2.428   1.730   0.521 -0.5140 -0.3157  0.0768
   39POPC   C2A 2012   2.552   1.694   0.554 -0.4350 -0.1580 -0.0450
   39POPC    OH 2013   2.642   1.697   0.470  0.0727  0.1565  0.4995
   39POPC   C2B 2014   2.568   1.643   0.692 -0.0183 -0.2501 -0.1256
   39POPC   C2C 2015   2.705   1.676   0.751 -0.1306 -0.0409  0.0172
   39POPC   C2D 2016   2.726   1.604   0.884 -0.3842 -0.2154 -0.0368
   39POPC   C2E 2017   2.633   1.668   0.988  0.0805  0.1305  0.1710
   39POPC   C2F 2018   2.636   1.619   1.133  0.4995 -0.1937  0.0566
   39POPC   C2G 2019   2.768   1.671   1.189  0.3987 -0.1406  0.2442
   39POPC   C2H 2020   2.779   1.656   1.341  0.2442  0.0012  0.2699
   39POPC   C2I 2021   2.874   1.764   1.394  0.0534  0.2519  0.1049
   39POPC   C2J 2022   2.897   1.742   1.543  0.1452  0.1584  0.0772
   39POPC   C2K 2023   2.969   1.609   1.570  0.4051  0.2377 -0.2225
   39POPC   C2L 2024   3.031   1.599   1.709 -0.4375  0.2699  0.1606
   39POPC   C2M 2025   2.932   1.620   1.824 -0.4745  0.4738  0.0925
   39POPC   C2N 2026   2.993   1.600   1.963  0.1322  0.1478 -0.2160
   39POPC   C2O 2027   2.889   1.563   2.069 -0.0501 -0.4569 -0.6011
   39POPC   C2P 2028   2.929   1.526   2.212 -0.2453  0.2288 -0.3664
   40POPC   CN1 2029   5.673   0.575   0.490 -0.2192 -0.5871 -0.1267
   40POPC   CN2 2030   5.560   0.706   0.648  0.1057 -0.1989 -0.0638
   40POPC   CN3 2031   5.475   0.490   0.593 -0.4775 -0.4275 -0.8255
   40POPC   NTM 2032   5.539   0.610   0.538 -0.0805 -0.2435  0.0106
   40POPC    CA 2033   5.457   0.666   0.429 -0.3987  0.3314  0.5367
   40POPC    CB 2034   5.524   0.780   0.352 -0.2497 -0.0409  0.1064
   40POPC    OA 2035   5.541   0.901   0.427  0.1352 -0.0505  0.0363
   40POPC     P 2036   5.619   1.021   0.353 -0.2353 -0.0087 -0.2905
   40POPC    OB 2037   5.600   1.132   0.448 -0.4929 -0.1971 -0.1212
   40POPC    OC 2038   5.571   1.026   0.213 -0.3646  0.8595 -0.2210
   40POPC    OD 2039   5.764   0.956   0.383 -0.1220  0.4137  0.0808
   40POPC    CC 2040   5.827   0.977   0.509 -0.0142 -0.0115  0.0972
   40POPC    CD 2041   5.971   0.924   0.507  0.0599  0.1935 -0.0551
   40POPC    OE 2042   6.023   0.903   0.639 -0.0362 -0.2393 -0.0850
   40POPC   C1A 2043   6.006   0.784   0.696  0.4417 -0.2216  0.0913
   40POPC    OF 2044   5.970   0.686   0.630 -0.5578 -0.1263  0.4809
   40POPC   C1B 2045   6.055   0.790   0.836  0.0516  0.2010  0.2112
   40POPC   C1C 2046   6.136   0.665   0.869 -0.1349  0.1380  0.4236
   40POPC   C1D 2047   6.193   0.678   1.010  0.0141 -0.0094  0.3778
   40POPC   C1E 2048   6.089   0.652   1.120 -0.3480 -0.2743 -0.0284
   40POPC   C1F 2049   6.179   0.615   1.238  0.2038  0.3089 -0.2632
   40POPC   C1G 2050   6.095   0.620   1.366  0.0338  0.6888 -0.3857
   40POPC   C1H 2051   6.029   0.749   1.413 -0.6178  0.3528 -0.3682
   40POPC   C1I 2052   6.137   0.836   1.478 -0.3514 -0.3241  0.1069
   40POPC   C1J 2053   6.126   0.968   1.470  0.2130 -0.3154 -0.7078
   40POPC   C1K 2054   5.998   1.038   1.423  0.1354 -0.3468 -0.5441
   40POPC   C1L 2055   6.030   1.158   1.334 -0.1070  0.1163 -0.0173
   40POPC   C1M 2056   6.140   1.254   1.381 -0.5304  0.2748  0.6657
   40POPC   C1N 2057   6.124   1.357   1.268  0.0971 -0.1585  0.1721
   40POPC   C1O 2058   6.246   1.447   1.256 -0.2773  0.3679  0.3034
   40POPC   C1P 2059   6.290   1.454   1.110  0.7580  0.4809  0.6111
   40POPC   C1Q 2060   0.115   1.524   1.088  0.4532  0.9192  0.0843
   40POPC   C1R 2061   0.133   1.540   0.937 -0.2896  0.1990 -0.0911
   40POPC    CE 2062   6.054   1.020   0.422 -0.0052  0.2645 -0.0383
   40POPC    OG 2063   6.037   1.154   0.469 -0.2812  0.3310 -0.3247
   40POPC   C2A 2064   6.099   1.254   0.408  0.5854  0.1616  0.2681
   40POPC    OH 2065   6.164   1.238   0.305  0.2040  0.0625  0.0402
   40POPC   C2B 2066   6.057   1.385   0.464 -0.1468  0.0478 -0.0117
   40POPC   C2C 2067   6.113   1.399   0.605 -0.1417  0.2676 -0.0348
   40POPC   C2D 2068   6.080   1.523   0.688  0.0168 -0.1546  0.6710
   40POPC   C2E 2069   5.945   1.522   0.760 -0.1062  0.0356  0.4449
   40POPC   C2F 2070   5.940   1.410   0.865  0.1175  0.4521  0.9048
   40POPC   C2G 2071   5.810   1.414   0.946 -0.5724 -0.2105 -0.1351
   40POPC   C2H 2072   5.804   1.525   1.051 -0.3966 -0.5363  0.2254
   40POPC   C2I 2073   5.682   1.518   1.143 -0.1373 -0.1825  0.5974
   40POPC   C2J 2074   5.664   1.655   1.210  0.0660  0.1948 -0.1078
   40POPC   C2K 2075   5.537   1.649   1.296  0.3481 -0.2840  0.2783
   40POPC   C2L 2076   5.549   1.773   1.385 -0.3428  0.1730 -0.2553
   40POPC   C2M 2077   5.422   1.820   1.457 -0.5369  0.4525 -0.7781
   40POPC   C2N 2078   5.472   1.937   1.541 -0.3238 -0.6766  0.7123
   40POPC   C2O 2079   5.362   2.043   1.554 -0.2318 -0.5709  0.6276
   40POPC   C2P 2080   5.236   1.988   1.620 -0.6008  0.1385  0.5269
   41POPC   CN1 2081   5.913   5.272   0.722  0.2916  0.1720 -0.0397
   41POPC   CN2 2082   5.689   5.219   0.695 -0.1768 -0.4697 -0.6363
   41POPC   CN3 2083   5.853   5.039   0.706 -0.0259 -0.0054  0.3279
   41POPC   NTM 2084   5.824   5.175   0.657  0.2411  0.0241  0.2491
   41POPC    CA 2085   5.843   5.166   0.512 -0.2375 -0.1667  0.1943
   41POPC    CB 2086   5.835   5.285   0.416  0.2560 -0.2587  0.0354
   41POPC    OA 2087   5.702   5.336   0.417  0.1923 -0.4060 -0.5012
   41POPC     P 2088   5.679   5.468   0.328  0.3158 -0.0224  0.0308
   41POPC    OB 2089   5.533   5.484   0.312  0.3024 -0.2856 -0.1136
   41POPC    OC 2090   5.768   5.482   0.210  0.3211 -0.4142 -0.0128
   41POPC    OD 2091   5.739   5.558   0.447  0.0339  0.3419 -0.0976
   41POPC    CC 2092   5.645   5.577   0.553 -0.0484 -0.2056 -0.0693
   41POPC    CD 2093   5.709   5.643   0.676 -0.4792  0.1933 -0.0585
   41POPC    OE 2094   5.629   5.646   0.794 -0.3321  0.2240  0.0405
   41POPC   C1A 2095   5.674   5.579   0.900  0.1177  0.3961 -0.0410
   41POPC    OF 2096   5.737   5.475   0.885 -0.0379  0.2164  0.5363
   41POPC   C1B 2097   5.605   5.614   1.026  0.0347 -0.1231  0.0610
   41POPC   C1C 2098   5.520   5.506   1.093 -0.5030 -0.1618 -0.6813
   41POPC   C1D 2099   5.428   5.585   1.186 -0.0638 -0.2075 -0.2039
   41POPC   C1E 2100   5.305   5.508   1.234 -0.2516  0.0660 -0.2489
   41POPC   C1F 2101   5.237   5.566   1.359 -0.0028 -0.0873 -0.0418
   41POPC   C1G 2102   5.141   5.461   1.414  0.0511 -0.2151 -0.1916
   41POPC   C1H 2103   5.050   5.516   1.524  0.1898 -0.3938  0.0122
   41POPC   C1I 2104   4.936   5.605   1.475  0.0343 -0.4096  0.3427
   41POPC   C1J 2105   4.827   5.622   1.549 -0.5574 -0.1815 -0.5657
   41POPC   C1K 2106   4.827   5.546   1.682  0.3552  0.3843 -0.2320
   41POPC   C1L 2107   4.685   5.491   1.692  0.3362  0.5093  0.2044
   41POPC   C1M 2108   4.677   5.393   1.809 -0.2829  0.2208 -0.0723
   41POPC   C1N 2109   4.778   5.278   1.797 -0.4493  0.1259 -0.5760
   41POPC   C1O 2110   4.788   5.212   1.935 -0.6425  0.1389 -0.5549
   41POPC   C1P 2111   4.861   5.080   1.913 -0.4465  0.1021  0.2741
   41POPC   C1Q 2112   4.801   4.966   1.995  0.4909 -0.0900  0.7102
   41POPC   C1R 2113   4.893   4.845   1.982 -0.0013 -0.4033  0.1402
   41POPC    CE 2114   5.742   5.782   0.620 -0.3509  0.3155  0.3194
   41POPC    OG 2115   5.630   5.869   0.605 -0.3203  0.2353 -0.4015
   41POPC   C2A 2116   5.657   5.998   0.583 -0.2075  0.2089 -0.4164
   41POPC    OH 2117   5.769   6.042   0.557  0.0644 -0.3656 -0.2352
   41POPC   C2B 2118   5.536   6.083   0.570 -0.7867 -0.5352 -0.0003
   41POPC   C2C 2119   5.554   6.214   0.647  0.3260 -0.7282  0.0927
   41POPC   C2D 2120   5.558   6.193   0.798 -0.2527 -0.1651  0.1884
   41POPC   C2E 2121   5.536   6.326   0.870  0.3248  0.2105 -0.3157
   41POPC   C2F 2122   5.546   6.318   1.023 -0.6857  0.1370 -0.2443
   41POPC   C2G 2123   5.569   0.114   1.090  0.4033  0.1889 -0.7025
   41POPC   C2H 2124   5.452   0.211   1.105  0.0716 -0.2253 -0.5833
   41POPC   C2I 2125   5.332   0.137   1.163 -0.4379  0.1758 -1.1087
   41POPC   C2J 2126   5.197   0.204   1.190 -0.1739  0.2747  0.0268
   41POPC   C2K 2127   5.130   0.239   1.057  0.2339  0.2369 -0.1903
   41POPC   C2L 2128   5.003   0.324   1.068  0.1472  0.1498 -0.5196
   41POPC   C2M 2129   4.888   0.241   1.127  0.3666  0.1137 -0.1431
   41POPC   C2N 2130   4.774   0.333   1.170 -0.1393 -0.4579 -0.2496
   41POPC   C2O 2131   4.703   0.266   1.288  0.0550 -0.0676  0.0901
   41POPC   C2P 2132   4.587   0.347   1.345  0.1076 -0.4536  0.7617
   42POPC   CN1 2133   3.464   0.865   5.931  0.3137  0.2698  0.5322
   42POPC   CN2 2134   3.605   0.898   0.114  0.1347  0.0656  0.3115
   42POPC   CN3 2135   3.414   0.766   0.136 -0.2008 -0.0053 -0.4613
   42POPC   NTM 2136   3.463   0.890   0.076  0.0626  0.3697  0.5137
   42POPC    CA 2137   3.391   1.013   0.113  0.3044  0.6878 -0.0467
   42POPC    CB 2138   3.247   1.040   0.068  0.1255  0.1652  0.2037
   42POPC    OA 2139   3.146   0.942   0.096 -0.2944  0.4766 -0.2125
   42POPC     P 2140   3.016   0.939   0.002 -0.3385  0.0935 -0.1389
   42POPC    OB 2141   3.048   0.931   5.858  0.2601  0.0036 -0.0024
   42POPC    OC 2142   2.927   1.048   0.047  0.1475  0.4476 -0.0373
   42POPC    OD 2143   2.946   0.800   0.045 -0.2330  0.0136 -0.2234
   42POPC    CC 2144   2.894   0.801   0.179 -0.0351  0.2036 -0.1471
   42POPC    CD 2145   2.930   0.669   0.248 -0.1434  0.2867  0.0672
   42POPC    OE 2146   2.835   0.592   0.322 -0.1122  0.1528 -0.0315
   42POPC   C1A 2147   2.761   0.501   0.260 -0.2515  0.0897  0.2249
   42POPC    OF 2148   2.716   0.531   0.149 -0.2964 -0.0229  0.2133
   42POPC   C1B 2149   2.707   0.398   0.351  0.0670  0.1313  0.4635
   42POPC   C1C 2150   2.717   0.255   0.298 -0.3098  0.0340  0.6480
   42POPC   C1D 2151   2.847   0.186   0.340  0.2257  0.5507 -0.1150
   42POPC   C1E 2152   2.975   0.263   0.309  0.2783  0.6693  0.3804
   42POPC   C1F 2153   3.088   0.168   0.349 -0.0753 -0.0812 -0.3675
   42POPC   C1G 2154   3.226   0.198   0.289 -0.0750  0.0162 -0.3190
   42POPC   C1H 2155   3.298   0.326   0.330 -0.0620  0.0576 -0.4735
   42POPC   C1I 2156   3.445   0.340   0.289  0.3058 -0.1958  0.7243
   42POPC   C1J 2157   3.524   0.427   0.351  0.2964 -0.2493  0.8111
   42POPC   C1K 2158   3.486   0.492   0.484  0.3088  0.2909  0.5547
   42POPC   C1L 2159   3.548   0.630   0.503  0.6273  0.2097  0.1129
   42POPC   C1M 2160   3.505   0.711   0.626 -0.0137  0.1457 -0.0693
   42POPC   C1N 2161   3.576   0.846   0.618  0.0129  0.1095 -0.5101
   42POPC   C1O 2162   3.720   0.824   0.666 -0.2693 -0.1361  0.2324
   42POPC   C1P 2163   3.792   0.958   0.666 -0.0201 -0.2699  0.0328
   42POPC   C1Q 2164   3.941   0.925   0.683 -0.0025 -0.2707 -0.1217
   42POPC   C1R 2165   4.017   1.056   0.659 -0.2421 -0.1073  0.0002
   42POPC    CE 2166   3.059   0.699   0.325 -0.0550 -0.0349  0.0446
   42POPC    OG 2167   3.045   0.822   0.397 -0.2396 -0.0833  0.0919
   42POPC   C2A 2168   3.158   0.872   0.445 -0.3899  0.1970  0.1547
   42POPC    OH 2169   3.264   0.863   0.383 -0.4222  0.3788  0.0731
   42POPC   C2B 2170   3.122   0.970   0.550 -0.0845  0.7655 -0.2640
   42POPC   C2C 2171   3.214   1.092   0.550  0.0519  0.6638  0.0001
   42POPC   C2D 2172   3.182   1.194   0.660 -0.2786  0.2489  0.2938
   42POPC   C2E 2173   3.244   1.155   0.794  0.5500  0.3274 -0.0574
   42POPC   C2F 2174   3.210   1.258   0.902  0.2069  0.0589  0.0917
   42POPC   C2G 2175   3.271   1.220   1.037  0.5544 -0.4196 -0.1960
   42POPC   C2H 2176   3.208   1.320   1.134  0.4741 -0.0703 -0.6081
   42POPC   C2I 2177   3.271   1.325   1.273 -0.8519  0.4003 -0.0103
   42POPC   C2J 2178   3.383   1.429   1.271 -1.0937  0.6720  0.3059
   42POPC   C2K 2179   3.457   1.427   1.405 -0.1000  0.0140 -0.2377
   42POPC   C2L 2180   3.550   1.547   1.422 -0.1932  0.0623 -0.0664
   42POPC   C2M 2181   3.611   1.541   1.562 -0.0783 -0.4077 -0.1344
   42POPC   C2N 2182   3.704   1.658   1.595 -0.2507 -0.4495  0.5097
   42POPC   C2O 2183   3.820   1.625   1.690  0.1022  0.1649  0.2951
   42POPC   C2P 2184   3.918   1.742   1.699  0.0847  0.1483  0.7043
   43POPC   CN1 2185   0.894   1.989   5.713 -0.0866 -0.0588 -0.2381
   43POPC   CN2 2186   1.081   2.050   5.852 -0.2419  0.0100 -0.6738
   43POPC   CN3 2187   0.861   2.067   5.939 -0.3394  0.0884 -0.0960
   43POPC   NTM 2188   0.942   2.081   5.817 -0.3845 -0.0161 -0.1381
   43POPC    CA 2189   0.936   2.221   5.772  0.5134 -0.0887 -0.5039
   43POPC    CB 2190   0.987   2.345   5.845 -0.0756 -0.3705  0.4038
   43POPC    OA 2191   0.896   2.374   5.952 -0.0637  0.0176  0.3121
   43POPC     P 2192   0.974   2.456   0.067  0.1566  0.0708  0.1261
   43POPC    OB 2193   1.009   2.588   0.011  0.0662 -0.1158 -0.3765
   43POPC    OC 2194   1.088   2.374   0.112  0.1164 -0.2005 -0.2553
   43POPC    OD 2195   0.866   2.473   0.185  0.4590  0.5483  0.3368
   43POPC    CC 2196   0.834   2.342   0.234  0.5589  0.4500  0.1383
   43POPC    CD 2197   0.692   2.321   0.286  0.4688  0.2495 -0.1808
   43POPC    OE 2198   0.590   2.356   0.193  0.5549  0.3705 -0.2311
   43POPC   C1A 2199   0.571   2.292   0.077 -0.6829 -0.4211  0.3867
   43POPC    OF 2200   0.612   2.177   0.060 -0.3270 -0.2895  0.3649
   43POPC   C1B 2201   0.466   2.354   5.993 -0.1462  0.2508  0.2020
   43POPC   C1C 2202   0.322   2.337   0.043  0.0186 -0.0141  0.5994
   43POPC   C1D 2203   0.279   2.378   0.184 -0.5727 -0.2545  0.4918
   43POPC   C1E 2204   0.138   2.332   0.221 -0.8144 -0.0274 -0.1387
   43POPC   C1F 2205   0.081   2.348   0.362  0.2308 -0.3001  0.3201
   43POPC   C1G 2206   0.092   2.488   0.424 -0.3915 -0.0215 -0.1948
   43POPC   C1H 2207   0.077   2.482   0.576 -0.0976 -0.0049 -0.1647
   43POPC   C1I 2208   0.132   2.607   0.646 -0.0091 -0.1681  0.0582
   43POPC   C1J 2209   0.131   2.597   0.778  0.6150 -0.4645  0.0484
   43POPC   C1K 2210   0.088   2.468   0.847 -0.3681 -0.1963 -0.0383
   43POPC   C1L 2211   6.268   2.480   0.927 -0.1683 -0.0749  0.2697
   43POPC   C1M 2212   6.242   2.358   1.015 -0.3565 -0.1341  0.1320
   43POPC   C1N 2213   0.026   2.345   1.136 -0.2322  0.1596  0.0689
   43POPC   C1O 2214   6.305   2.467   1.222  0.3883  0.6437 -0.3852
   43POPC   C1P 2215   0.003   2.428   1.370 -0.5162  0.2635 -0.4314
   43POPC   C1Q 2216   6.194   2.338   1.406 -0.1771 -0.2689 -0.6385
   43POPC   C1R 2217   6.228   2.268   1.538 -0.3472  0.1115 -0.3906
   43POPC    CE 2218   0.676   2.373   0.429 -0.4384 -0.2978 -0.0801
   43POPC    OG 2219   0.688   2.513   0.458  0.2181 -0.3013 -0.3355
   43POPC   C2A 2220   0.685   2.549   0.586  0.0514 -0.2245 -0.3609
   43POPC    OH 2221   0.682   2.469   0.679 -0.2614  0.6975  0.4425
   43POPC   C2B 2222   0.714   2.694   0.594 -0.3499 -0.1579 -0.1321
   43POPC   C2C 2223   0.667   2.762   0.723  0.2620  0.2796 -0.1346
   43POPC   C2D 2224   0.517   2.774   0.750  0.2255  0.1251 -0.2636
   43POPC   C2E 2225   0.503   2.865   0.872  0.1651 -0.1700 -0.0497
   43POPC   C2F 2226   0.362   2.909   0.915  0.3400  0.0749  0.2818
   43POPC   C2G 2227   0.362   2.985   1.047 -0.0297  0.0488  0.2961
   43POPC   C2H 2228   0.216   3.001   1.093 -0.0499 -0.7781  0.5309
   43POPC   C2I 2229   0.213   3.113   1.197  0.2420 -0.1828 -0.0992
   43POPC   C2J 2230   0.098   3.110   1.297 -0.2121 -0.2521 -0.6150
   43POPC   C2K 2231   0.098   2.984   1.385 -0.0264  0.1269 -0.0696
   43POPC   C2L 2232   0.211   2.987   1.488 -0.1684 -0.3769  0.1005
   43POPC   C2M 2233   0.168   3.083   1.599  0.1504 -0.0672 -0.0410
   43POPC   C2N 2234   0.290   3.126   1.680 -0.2384  0.0329  0.4978
   43POPC   C2O 2235   0.248   3.186   1.814  0.0406 -0.1831  0.6839
   43POPC   C2P 2236   0.362   3.239   1.901  0.0697  0.1054  0.4715
   44POPC   CN1 2237   2.443   3.687   5.938  0.0565 -0.0404 -0.4023
   44POPC   CN2 2238   2.517   3.544   0.116  0.4502  0.3613 -0.1343
   44POPC   CN3 2239   2.640   3.733   0.055  0.0683 -0.4756  0.2837
   44POPC   NTM 2240   2.560   3.623   5.999  0.1158 -0.0859 -0.5638
   44POPC    CA 2241   2.629   3.541   5.898  0.7147  0.4952 -0.6367
   44POPC    CB 2242   2.767   3.481   5.924  0.4063 -0.0305 -0.1718
   44POPC    OA 2243   2.772   3.389   0.033 -0.4440 -0.0831 -0.1740
   44POPC     P 2244   2.923   3.335   0.043 -0.5086 -0.2736 -0.2199
   44POPC    OB 2245   2.999   3.356   5.918 -0.2103 -0.2457 -0.0345
   44POPC    OC 2246   2.911   3.206   0.115  0.3539 -0.2264  0.0159
   44POPC    OD 2247   2.982   3.455   0.132 -0.1332 -0.4903 -0.1721
   44POPC    CC 2248   2.949   3.445   0.270 -0.5463 -0.1724 -0.2440
   44POPC    CD 2249   2.882   3.565   0.338 -0.2381 -0.1281 -0.0124
   44POPC    OE 2250   2.975   3.672   0.358  0.0151 -0.2905 -0.2931
   44POPC   C1A 2251   2.951   3.792   0.306  0.0220 -0.0978  0.1374
   44POPC    OF 2252   2.888   3.806   0.201  0.2217  0.5154  0.0971
   44POPC   C1B 2253   3.023   3.911   0.355 -0.6847  0.4062 -0.0299
   44POPC   C1C 2254   2.972   3.947   0.495 -0.2806  0.1171  0.1930
   44POPC   C1D 2255   3.035   4.080   0.537 -0.3417  0.1031  0.3283
   44POPC   C1E 2256   3.004   4.129   0.679 -0.4019  0.2820  0.2533
   44POPC   C1F 2257   3.030   4.024   0.787 -0.8221  0.0142  0.0959
   44POPC   C1G 2258   3.018   4.077   0.930 -0.1537 -0.2154  0.2422
   44POPC   C1H 2259   3.029   3.964   1.032 -0.5635  0.1313  0.6752
   44POPC   C1I 2260   2.921   3.856   1.034  0.0673 -0.5295 -0.1041
   44POPC   C1J 2261   2.930   3.772   1.136 -0.3981  0.0713  0.4430
   44POPC   C1K 2262   3.050   3.760   1.231 -0.4292 -0.1668  0.4523
   44POPC   C1L 2263   3.006   3.730   1.375 -0.2144  0.3929  0.6395
   44POPC   C1M 2264   3.073   3.821   1.477  0.4511 -0.0201  0.5762
   44POPC   C1N 2265   2.987   3.947   1.485  0.1330 -0.1876 -0.1664
   44POPC   C1O 2266   3.045   4.043   1.589 -0.0330 -0.6490  0.3590
   44POPC   C1P 2267   2.930   4.129   1.641  0.0635 -0.4824  0.2968
   44POPC   C1Q 2268   2.958   4.213   1.766  0.3448 -0.4963  0.2438
   44POPC   C1R 2269   2.826   4.269   1.819  0.3549  0.0027 -0.2457
   44POPC    CE 2270   2.832   3.517   0.474  0.0216  0.0247  0.1381
   44POPC    OG 2271   2.713   3.437   0.471  0.1115 -0.1022 -0.1890
   44POPC   C2A 2272   2.685   3.392   0.593  0.0819  0.0176 -0.1512
   44POPC    OH 2273   2.764   3.408   0.687 -0.4038 -0.0632  0.2744
   44POPC   C2B 2274   2.554   3.325   0.605 -0.2515  0.7132  0.1431
   44POPC   C2C 2275   2.541   3.245   0.735  0.1669  0.2068 -0.1230
   44POPC   C2D 2276   2.407   3.172   0.738  0.4488 -0.3314 -0.3962
   44POPC   C2E 2277   2.378   3.150   0.886  0.5792  0.2105 -0.2889
   44POPC   C2F 2278   2.429   3.019   0.944  0.3203  0.1659 -0.1601
   44POPC   C2G 2279   2.374   2.997   1.085 -0.2692 -0.2682 -0.4531
   44POPC   C2H 2280   2.436   2.874   1.151  0.3701  0.2804 -0.0171
   44POPC   C2I 2281   2.389   2.847   1.294 -0.4452 -0.2536 -0.3813
   44POPC   C2J 2282   2.492   2.755   1.360  0.1196  0.3388 -0.4330
   44POPC   C2K 2283   2.444   2.727   1.502  0.4575 -0.1796 -0.4201
   44POPC   C2L 2284   2.551   2.655   1.585  0.2186  0.3414  0.3492
   44POPC   C2M 2285   2.484   2.585   1.704 -0.1173  0.2470  0.1061
   44POPC   C2N 2286   2.563   2.588   1.835 -0.1221 -0.4807  0.1326
   44POPC   C2O 2287   2.674   2.483   1.840 -0.1235 -0.4742  0.2928
   44POPC   C2P 2288   2.725   2.512   1.981  0.3217  0.5488 -0.0696
   45POPC   CN1 2289   3.461   2.268   0.190  0.2837 -0.2508 -0.2828
   45POPC   CN2 2290   3.269   2.183   0.283  0.4566  0.1037 -0.1396
   45POPC   CN3 2291   3.391   2.055   0.116  0.1201 -0.3809  0.3017
   45POPC   NTM 2292   3.342   2.189   0.156  0.2277 -0.1655 -0.2859
   45POPC    CA 2293   3.258   2.265   0.062  0.0336 -0.1613 -0.1074
   45POPC    CB 2294   3.136   2.200   5.997 -0.3229 -0.0853  0.4776
   45POPC    OA 2295   3.025   2.150   0.073 -0.0112 -0.4892  0.6741
   45POPC     P 2296   2.889   2.215   0.015  0.4095 -0.4273 -0.2567
   45POPC    OB 2297   2.790   2.110   0.049  0.0268 -0.2022 -0.6692
   45POPC    OC 2298   2.915   2.261   5.877 -0.1570  0.7806  0.0296
   45POPC    OD 2299   2.899   2.330   0.127  0.1202 -0.4620 -0.1938
   45POPC    CC 2300   2.848   2.280   0.250 -0.1250  0.1904 -0.0264
   45POPC    CD 2301   2.918   2.335   0.375  0.6223 -0.4685 -0.1484
   45POPC    OE 2302   2.898   2.267   0.499  0.3757  0.4102  0.3013
   45POPC   C1A 2303   2.966   2.157   0.529  0.3220  0.2529 -0.1527
   45POPC    OF 2304   3.057   2.107   0.463  0.4833 -0.0935  0.3330
   45POPC   C1B 2305   2.932   2.093   0.658  0.4265  0.0934 -0.2041
   45POPC   C1C 2306   2.984   2.167   0.781  0.9257  0.1857 -0.4678
   45POPC   C1D 2307   2.979   2.071   0.900  0.0938  0.4100 -0.3209
   45POPC   C1E 2308   3.013   2.153   1.025 -0.7673  0.1674  0.0847
   45POPC   C1F 2309   3.045   2.072   1.150 -0.0732  0.4629  0.1058
   45POPC   C1G 2310   3.185   2.011   1.141 -0.0427  0.6023 -0.4085
   45POPC   C1H 2311   3.236   1.961   1.276 -0.4401  0.3496 -0.3486
   45POPC   C1I 2312   3.362   1.876   1.256 -0.4743  0.0673  0.5780
   45POPC   C1J 2313   3.458   1.884   1.348  0.1207  0.2891 -0.0495
   45POPC   C1K 2314   3.452   1.975   1.471  0.0182  0.2756 -0.0447
   45POPC   C1L 2315   3.593   2.018   1.510  0.2035 -0.3854  0.0300
   45POPC   C1M 2316   3.601   2.105   1.636 -0.1002  0.7753 -0.7371
   45POPC   C1N 2317   3.744   2.120   1.687 -0.4217  0.4544  0.2937
   45POPC   C1O 2318   3.752   2.175   1.829  0.4747  0.0475  0.4086
   45POPC   C1P 2319   3.731   2.326   1.836 -0.9174 -0.1105 -0.1756
   45POPC   C1Q 2320   3.744   2.368   1.983  0.4518 -0.0852 -0.2944
   45POPC   C1R 2321   3.756   2.519   1.959  0.3844 -0.0145  0.1116
   45POPC    CE 2322   2.874   2.481   0.383  0.3633 -0.5829  0.5855
   45POPC    OG 2323   2.745   2.498   0.441  0.2347 -0.5322  0.2897
   45POPC   C2A 2324   2.703   2.608   0.503  0.2815 -0.8031  0.8080
   45POPC    OH 2325   2.785   2.697   0.523 -0.1497 -0.2385  0.0988
   45POPC   C2B 2326   2.567   2.609   0.562 -0.0451  0.8306  0.0643
   45POPC   C2C 2327   2.567   2.583   0.712  0.2042  0.1527 -0.0492
   45POPC   C2D 2328   2.427   2.557   0.770  0.1819 -0.0542 -0.1972
   45POPC   C2E 2329   2.428   2.523   0.919  0.1037  0.4203 -0.0884
   45POPC   C2F 2330   2.282   2.511   0.964  0.2009 -0.0274  0.1134
   45POPC   C2G 2331   2.272   2.504   1.116 -0.3573  0.0467  0.0826
   45POPC   C2H 2332   2.131   2.454   1.150 -0.3404 -0.0454  0.0201
   45POPC   C2I 2333   2.094   2.454   1.299 -0.2912 -0.2442  0.0320
   45POPC   C2J 2334   2.193   2.368   1.377  0.4268 -0.0541 -0.6522
   45POPC   C2K 2335   2.151   2.375   1.524 -0.4924  0.4251 -0.9314
   45POPC   C2L 2336   2.045   2.269   1.554  0.3248 -0.0812  0.2392
   45POPC   C2M 2337   1.999   2.284   1.699 -0.1500  0.1341  0.0692
   45POPC   C2N 2338   1.925   2.155   1.735 -0.0902 -0.0000 -0.2877
   45POPC   C2O 2339   1.866   2.148   1.876  0.5195 -0.1641 -0.0371
   45POPC   C2P 2340   1.793   2.016   1.902 -0.6675  0.3441 -0.6985
   46POPC   CN1 2341   2.035   3.942   0.351 -0.1429 -0.4746 -0.0100
   46POPC   CN2 2342   2.198   4.022   0.196  0.0690 -0.6719  0.4047
   46POPC   CN3 2343   2.161   4.135   0.404 -0.2136 -0.1722  0.0412
   46POPC   NTM 2344   2.096   4.063   0.294 -0.0925 -0.4289  0.1380
   46POPC    CA 2345   1.985   4.134   0.228  0.1979  0.3370  0.4646
   46POPC    CB 2346   1.988   4.284   0.199  0.4073  0.2989  0.2865
   46POPC    OA 2347   2.115   4.320   0.142  0.2703 -0.1054 -0.2898
   46POPC     P 2348   2.146   4.476   0.164  0.2053 -0.0893 -0.3108
   46POPC    OB 2349   2.097   4.518   0.297  0.0408 -0.4206 -0.2667
   46POPC    OC 2350   2.082   4.532   0.042  0.2766  0.0146 -0.3009
   46POPC    OD 2351   2.307   4.481   0.169  0.1575  0.4521  1.0173
   46POPC    CC 2352   2.373   4.439   0.288  0.4032 -0.7548  0.4698
   46POPC    CD 2353   2.386   4.544   0.399 -0.1835  0.3045 -0.4446
   46POPC    OE 2354   2.461   4.661   0.364  0.1151  0.1379 -0.3671
   46POPC   C1A 2355   2.431   4.775   0.425 -0.1168 -0.1054 -0.0206
   46POPC    OF 2356   2.324   4.784   0.484 -0.3175  0.1125 -0.4141
   46POPC   C1B 2357   2.548   4.866   0.427 -0.1681 -0.0310 -0.3115
   46POPC   C1C 2358   2.653   4.852   0.538 -0.3360  0.2580 -0.1131
   46POPC   C1D 2359   2.608   4.919   0.668  0.5688  0.6432  0.0067
   46POPC   C1E 2360   2.691   4.867   0.785  0.7616 -0.3519 -0.5641
   46POPC   C1F 2361   2.620   4.742   0.836  0.2946  0.3605  0.5642
   46POPC   C1G 2362   2.483   4.762   0.903 -0.1177  0.2662 -0.2350
   46POPC   C1H 2363   2.497   4.811   1.047  0.5851 -0.3166 -0.0954
   46POPC   C1I 2364   2.532   4.699   1.145 -0.1592 -0.4393  0.0333
   46POPC   C1J 2365   2.498   4.725   1.271 -0.1949  0.0509 -0.0741
   46POPC   C1K 2366   2.428   4.855   1.311 -0.3180  0.1565 -0.6278
   46POPC   C1L 2367   2.324   4.808   1.412 -0.0089 -0.5027 -0.6098
   46POPC   C1M 2368   2.228   4.920   1.454  0.2194 -0.3141 -0.5930
   46POPC   C1N 2369   2.105   4.889   1.539  0.3808 -0.0642 -0.2663
   46POPC   C1O 2370   2.024   4.783   1.464 -0.1616 -0.0691  0.3164
   46POPC   C1P 2371   1.923   4.697   1.540 -0.4493 -0.4675 -0.5043
   46POPC   C1Q 2372   1.999   4.592   1.622 -0.1188  0.0210 -0.1798
   46POPC   C1R 2373   1.899   4.494   1.683  0.3873 -0.2244  0.2622
   46POPC    CE 2374   2.389   4.470   0.533  0.0385  0.3811 -0.4069
   46POPC    OG 2375   2.502   4.387   0.561 -0.2182  0.2651  0.3216
   46POPC   C2A 2376   2.491   4.278   0.636  0.2451 -0.2499 -0.3444
   46POPC    OH 2377   2.381   4.222   0.647  0.0549  0.1697 -0.0918
   46POPC   C2B 2378   2.621   4.225   0.682  0.0829 -0.0926  0.3069
   46POPC   C2C 2379   2.642   4.247   0.832  0.1181  0.0778  0.2771
   46POPC   C2D 2380   2.560   4.151   0.918 -0.3238  0.1756 -0.0278
   46POPC   C2E 2381   2.554   4.202   1.062 -0.8737  0.2324 -0.0707
   46POPC   C2F 2382   2.457   4.125   1.152 -0.0778 -0.0923  0.5164
   46POPC   C2G 2383   2.468   4.190   1.290 -0.7453  0.5204  0.2833
   46POPC   C2H 2384   2.461   4.342   1.310  0.0289  0.5598  0.2658
   46POPC   C2I 2385   2.382   4.378   1.435 -0.5975 -1.2925  0.4312
   46POPC   C2J 2386   2.465   4.360   1.563  0.2444  0.0141  0.0854
   46POPC   C2K 2387   2.392   4.380   1.696  0.2242 -0.0312  0.0813
   46POPC   C2L 2388   2.312   4.251   1.709 -0.1234  0.2320  0.5880
   46POPC   C2M 2389   2.265   4.246   1.854 -0.6204  0.3666  0.4353
   46POPC   C2N 2390   2.168   4.128   1.868 -0.6385  0.2999 -0.2529
   46POPC   C2O 2391   2.134   4.103   2.015  0.0936 -0.1413 -0.1553
   46POPC   C2P 2392   2.063   3.968   2.026 -0.3325  0.0842 -0.1272
   47POPC   CN1 2393   0.883   0.862   5.923 -0.7690  0.8541 -0.1274
   47POPC   CN2 2394   0.759   0.686   0.025  0.2495 -0.0115 -0.4037
   47POPC   CN3 2395   0.661   0.811   5.851 -0.0073 -0.4895 -0.1819
   47POPC   NTM 2396   0.749   0.822   5.968 -0.4787  0.1606  0.1206
   47POPC    CA 2397   0.698   0.912   0.073 -0.1600  0.0847  0.3423
   47POPC    CB 2398   0.555   0.919   0.124 -0.4463 -0.4184 -0.3707
   47POPC    OA 2399   0.496   0.799   0.176 -0.2736 -0.2005  0.3379
   47POPC     P 2400   0.376   0.815   0.283 -0.2038  0.1707  0.3623
   47POPC    OB 2401   0.312   0.687   0.321 -1.2377  0.5950  0.0753
   47POPC    OC 2402   0.293   0.926   0.231  0.5058  0.2696 -0.5935
   47POPC    OD 2403   0.445   0.874   0.416  0.2957  0.5329 -0.0510
   47POPC    CC 2404   0.362   0.867   0.533  0.2124 -0.6508 -0.1703
   47POPC    CD 2405   0.386   0.965   0.648 -0.5323  0.0884 -0.6273
   47POPC    OE 2406   0.275   1.047   0.684 -0.3236  0.1589 -0.1476
   47POPC   C1A 2407   0.171   0.990   0.745 -0.6251  0.3880 -0.4487
   47POPC    OF 2408   0.163   0.868   0.727 -0.5076  0.4538 -0.9807
   47POPC   C1B 2409   0.093   1.070   0.842 -0.0525  0.0314  0.3112
   47POPC   C1C 2410   0.120   1.076   0.993 -0.0609  0.5892  0.2912
   47POPC   C1D 2411   0.262   1.121   1.026  0.2420  0.0616 -0.2568
   47POPC   C1E 2412   0.303   1.066   1.163  0.2769  0.1993 -0.2113
   47POPC   C1F 2413   0.454   1.069   1.189  0.2133  0.2487  0.1638
   47POPC   C1G 2414   0.539   0.966   1.114 -0.1314  0.0331  0.0652
   47POPC   C1H 2415   0.516   0.828   1.175  0.0507  0.0033  0.0666
   47POPC   C1I 2416   0.576   0.730   1.073  0.3530  0.0793  0.1712
   47POPC   C1J 2417   0.631   0.613   1.103  0.4778  0.0301 -0.2497
   47POPC   C1K 2418   0.645   0.567   1.248 -0.6205 -0.1378 -0.1922
   47POPC   C1L 2419   0.726   0.439   1.268 -0.3362 -0.0266 -0.6212
   47POPC   C1M 2420   0.738   0.394   1.414 -0.5568  0.2262 -0.5249
   47POPC   C1N 2421   0.803   0.500   1.504 -0.0271  0.0673 -0.7150
   47POPC   C1O 2422   0.853   0.431   1.632  0.0788  1.0255 -0.2287
   47POPC   C1P 2423   0.881   0.516   1.755  0.2740 -0.0904  0.5117
   47POPC   C1Q 2424   0.950   0.443   1.870  0.0104 -0.7123  0.2772
   47POPC   C1R 2425   1.099   0.440   1.833 -0.0274 -0.2263  0.0909
   47POPC    CE 2426   0.497   1.058   0.598 -0.1586  0.1735  0.3416
   47POPC    OG 2427   0.507   1.185   0.663 -0.0756 -0.0682  0.8023
   47POPC   C2A 2428   0.603   1.271   0.633 -0.0902 -0.1705  0.4627
   47POPC    OH 2429   0.694   1.243   0.555 -0.2010  0.4940  0.0862
   47POPC   C2B 2430   0.581   1.403   0.697  0.1625  0.2991 -0.4008
   47POPC   C2C 2431   0.711   1.481   0.716 -0.1399  0.7574 -0.1962
   47POPC   C2D 2432   0.678   1.616   0.780 -0.0075  0.5372  0.3395
   47POPC   C2E 2433   0.625   1.602   0.923 -0.0688 -0.3600  0.2392
   47POPC   C2F 2434   0.573   1.736   0.976  0.2078 -0.1155 -0.0998
   47POPC   C2G 2435   0.530   1.732   1.123 -0.2251  0.0160 -0.2203
   47POPC   C2H 2436   0.480   1.873   1.156 -0.5319 -0.1221 -0.0925
   47POPC   C2I 2437   0.411   1.887   1.291 -0.2712 -0.1819  0.0487
   47POPC   C2J 2438   0.372   2.027   1.339  0.0629 -0.0157 -0.1661
   47POPC   C2K 2439   0.291   2.026   1.469 -0.1763 -0.8173 -0.3156
   47POPC   C2L 2440   0.352   1.952   1.588  0.4743 -0.1532 -0.2219
   47POPC   C2M 2441   0.266   1.943   1.715 -0.2084  0.1747 -0.6536
   47POPC   C2N 2442   0.162   1.832   1.706 -0.0574  0.0112 -0.4144
   47POPC   C2O 2443   0.216   1.696   1.663 -0.3306 -0.1837 -0.1444
   47POPC   C2P 2444   0.284   1.616   1.775  0.1414  0.5967  0.1299
   48POPC   CN1 2445   4.948   1.867   0.235  0.3069  0.1961 -0.1086
   48POPC   CN2 2446   5.072   2.046   0.123 -0.2427 -0.1166  0.2690
   48POPC   CN3 2447   4.897   1.914   0.012 -0.6245 -0.4363  0.7127
   48POPC   NTM 2448   5.007   1.914   0.109  0.3020 -0.3306 -0.3101
   48POPC    CA 2449   5.120   1.828   0.073  0.7297  0.1702 -0.1839
   48POPC    CB 2450   5.094   1.712   5.976 -0.2473  0.3598 -0.1550
   48POPC    OA 2451   5.016   1.610   0.039  0.0601  0.1775 -0.0709
   48POPC     P 2452   4.916   1.538   5.936 -0.1033  0.1695  0.0922
   48POPC    OB 2453   4.952   1.394   5.939  0.2772  0.2616  0.0632
   48POPC    OC 2454   4.916   1.624   5.816 -0.2073 -0.3873 -0.3134
   48POPC    OD 2455   4.788   1.572   0.027 -0.1921 -0.2292  0.1192
   48POPC    CC 2456   4.788   1.475   0.132  0.3400 -0.0592  0.2773
   48POPC    CD 2457   4.730   1.523   0.266  0.0594  0.1910  0.0698
   48POPC    OE 2458   4.774   1.453   0.383  0.1938  0.5560  0.2396
   48POPC   C1A 2459   4.901   1.460   0.420  0.3126 -0.5981  0.0934
   48POPC    OF 2460   4.977   1.520   0.344 -0.1813 -0.4162 -0.2612
   48POPC   C1B 2461   4.931   1.372   0.534  0.4886 -0.4209  0.1846
   48POPC   C1C 2462   4.914   1.427   0.676  0.0020  0.1333 -0.0864
   48POPC   C1D 2463   4.976   1.327   0.774 -0.7446 -0.5740 -0.3215
   48POPC   C1E 2464   4.956   1.394   0.910  0.1870 -0.1848 -0.3615
   48POPC   C1F 2465   5.036   1.344   1.031 -0.3920  0.3798  0.2684
   48POPC   C1G 2466   4.981   1.206   1.068  0.2454  0.1091  0.2206
   48POPC   C1H 2467   5.063   1.144   1.182 -0.1306  0.0174  0.4427
   48POPC   C1I 2468   5.030   1.215   1.313 -0.3825 -0.1031  0.4455
   48POPC   C1J 2469   4.999   1.149   1.425 -0.6639 -0.1875  0.3180
   48POPC   C1K 2470   4.988   0.998   1.442  0.3714 -0.2801  0.2170
   48POPC   C1L 2471   5.010   0.968   1.591  0.3918  0.4458  0.3622
   48POPC   C1M 2472   4.982   0.824   1.633  0.1468  0.3414 -0.1534
   48POPC   C1N 2473   5.031   0.807   1.777  0.3301 -0.2291 -0.2791
   48POPC   C1O 2474   5.179   0.773   1.797  0.3735  0.1251  0.0025
   48POPC   C1P 2475   5.225   0.775   1.943 -0.1834  0.1061  0.1816
   48POPC   C1Q 2476   5.378   0.773   1.949 -0.1943 -0.2160  0.4079
   48POPC   C1R 2477   5.442   0.634   1.954  0.2503 -0.0204  0.1415
   48POPC    CE 2478   4.579   1.537   0.245  0.1065  0.1878 -0.2882
   48POPC    OG 2479   4.518   1.409   0.261  0.3809  0.0604 -0.2530
   48POPC   C2A 2480   4.389   1.421   0.288  0.4094 -0.2611  0.0355
   48POPC    OH 2481   4.327   1.528   0.293  0.6819 -0.1069  0.1228
   48POPC   C2B 2482   4.320   1.291   0.303  0.3021 -0.2256 -0.1479
   48POPC   C2C 2483   4.298   1.249   0.449 -0.0864  0.1931 -0.0848
   48POPC   C2D 2484   4.432   1.215   0.513 -0.2799 -0.2423  0.0879
   48POPC   C2E 2485   4.433   1.165   0.658  0.0222 -0.0437  0.1561
   48POPC   C2F 2486   4.580   1.156   0.700  0.0498 -0.0984  0.0511
   48POPC   C2G 2487   4.594   1.057   0.816  0.3562 -0.1423 -0.0236
   48POPC   C2H 2488   4.740   1.024   0.847  0.3064  0.1291  0.5133
   48POPC   C2I 2489   4.756   0.911   0.948  0.2879 -0.0743  0.2872
   48POPC   C2J 2490   4.699   0.941   1.086  0.2407 -0.2233  0.3007
   48POPC   C2K 2491   4.731   0.821   1.176  0.4886 -0.5621 -0.2341
   48POPC   C2L 2492   4.648   0.832   1.304  0.2420 -0.2745 -0.4150
   48POPC   C2M 2493   4.657   0.715   1.403 -0.6319  0.3380  0.4033
   48POPC   C2N 2494   4.560   0.715   1.521 -0.0823  0.2879  0.8614
   48POPC   C2O 2495   4.416   0.712   1.467  0.2247  0.3140  0.0287
   48POPC   C2P 2496   4.318   0.700   1.584 -0.4011 -0.3136 -0.5544
   49POPC   CN1 2497   4.847   4.663   0.737  0.6177  0.4482  0.0222
   49POPC   CN2 2498   4.635   4.599   0.683  0.2286  0.2762  0.1616
   49POPC   CN3 2499   4.809   4.441   0.653 -0.2111  0.1140 -0.3507
   49POPC   NTM 2500   4.774   4.583   0.638  0.2978  0.3181  0.3613
   49POPC    CA 2501   4.791   4.623   0.498  0.1117  0.7532  0.4624
   49POPC    CB 2502   4.933   4.636   0.443  0.1509 -0.0802  0.3579
   49POPC    OA 2503   5.027   4.533   0.474  0.0836 -0.1986  0.1676
   49POPC     P 2504   5.175   4.588   0.440  0.0688 -0.3757 -0.1938
   49POPC    OB 2505   5.166   4.714   0.518 -0.3803 -0.1082 -0.6702
   49POPC    OC 2506   5.168   4.588   0.292 -0.0618 -0.2052 -0.1878
   49POPC    OD 2507   5.261   4.479   0.520 -0.0652 -0.1953  0.1986
   49POPC    CC 2508   5.304   4.517   0.651  0.1844  0.7104 -0.1383
   49POPC    CD 2509   5.224   4.446   0.760  0.7282  0.0750 -0.1445
   49POPC    OE 2510   5.199   4.519   0.881  0.3461 -0.0051 -0.1728
   49POPC   C1A 2511   5.087   4.499   0.949  0.1445  0.4407 -0.3657
   49POPC    OF 2512   4.987   4.454   0.893  0.1293 -0.5985  0.4549
   49POPC   C1B 2513   5.086   4.559   1.084 -0.3546 -0.1670 -0.0922
   49POPC   C1C 2514   4.946   4.557   1.145 -0.4148  0.2613 -0.2140
   49POPC   C1D 2515   4.947   4.638   1.274  0.3952  0.0858 -0.1052
   49POPC   C1E 2516   5.050   4.591   1.377 -0.0246 -0.0849  0.2385
   49POPC   C1F 2517   5.043   4.671   1.507  0.1431 -0.2886  0.3734
   49POPC   C1G 2518   5.098   4.586   1.622  0.4554 -0.4163  0.1290
   49POPC   C1H 2519   5.249   4.563   1.607  0.4581 -0.0915 -0.3646
   49POPC   C1I 2520   5.303   4.519   1.743 -0.0356  0.7754  0.1248
   49POPC   C1J 2521   5.412   4.443   1.751 -0.2583  0.4645  0.1907
   49POPC   C1K 2522   5.489   4.406   1.624 -0.0299  0.1755  0.4117
   49POPC   C1L 2523   5.561   4.271   1.625 -0.2956  0.0343  1.0211
   49POPC   C1M 2524   5.654   4.264   1.747  0.0215  0.8019  0.8308
   49POPC   C1N 2525   5.751   4.146   1.738 -0.5642  0.3296  0.6904
   49POPC   C1O 2526   5.674   4.014   1.749  0.1449 -0.1516  0.0154
   49POPC   C1P 2527   5.653   3.993   1.899  0.4457 -0.5302  0.0056
   49POPC   C1Q 2528   5.775   3.996   1.991  0.1536  0.6884  0.3686
   49POPC   C1R 2529   5.733   3.948   2.130  0.4855  0.3703  0.3581
   49POPC    CE 2530   5.297   4.312   0.773 -0.0880 -0.3988 -0.3606
   49POPC    OG 2531   5.433   4.301   0.815 -0.2834  0.0573  0.4307
   49POPC   C2A 2532   5.484   4.180   0.791 -0.3039  0.1670 -0.1835
   49POPC    OH 2533   5.418   4.089   0.742  0.0874 -0.1537 -0.1187
   49POPC   C2B 2534   5.620   4.179   0.850 -0.2504  0.0082 -0.3093
   49POPC   C2C 2535   5.612   4.183   1.003 -0.1790 -0.2226 -0.2997
   49POPC   C2D 2536   5.753   4.199   1.062 -0.3303  0.2021 -0.0504
   49POPC   C2E 2537   5.781   4.244   1.205 -0.4904 -0.1159  0.0829
   49POPC   C2F 2538   5.926   4.267   1.248 -0.4241  0.4109 -0.4186
   49POPC   C2G 2539   5.915   4.331   1.386 -0.0217  0.1600 -0.2686
   49POPC   C2H 2540   6.060   4.351   1.430 -0.0880 -0.3294  0.1941
   49POPC   C2I 2541   6.050   4.389   1.577 -0.5744 -0.0207  0.0857
   49POPC   C2J 2542   6.187   4.395   1.646 -0.4167  0.0483 -0.2331
   49POPC   C2K 2543   6.273   4.514   1.604 -0.3322  0.0514 -0.0498
   49POPC   C2L 2544   6.222   4.644   1.668  0.2101  0.0750  0.3478
   49POPC   C2M 2545   6.306   4.764   1.627 -0.2235  0.5046  0.7023
   49POPC   C2N 2546   0.130   4.765   1.701  0.0102 -0.1584  0.2990
   49POPC   C2O 2547   0.209   4.892   1.670  0.4707 -0.5066  0.0380
   49POPC   C2P 2548   0.314   4.914   1.780  0.4518  0.3616 -0.1048
   50POPC   CN1 2549   3.583   5.317   0.763 -0.9013  1.2537 -0.5995
   50POPC   CN2 2550   3.707   5.491   0.640  0.2903  0.3951 -0.4111
   50POPC   CN3 2551   3.525   5.368   0.540  0.2370 -0.2064 -0.1021
   50POPC   NTM 2552   3.638   5.362   0.634  0.4862  0.2880 -0.3650
   50POPC    CA 2553   3.730   5.256   0.591 -0.5134 -0.8391  0.2144
   50POPC    CB 2554   3.858   5.220   0.668 -0.0997  0.0128 -0.0688
   50POPC    OA 2555   3.947   5.331   0.680 -0.0618 -0.0418  0.1443
   50POPC     P 2556   4.093   5.293   0.736  0.0623 -0.0044 -0.1540
   50POPC    OB 2557   4.180   5.410   0.711 -0.0348  0.0815 -0.0888
   50POPC    OC 2558   4.128   5.154   0.697 -0.3390 -0.0598 -0.3136
   50POPC    OD 2559   4.051   5.285   0.891  0.4326 -0.1945 -0.0595
   50POPC    CC 2560   4.043   5.412   0.956  0.0929  0.0564 -0.5829
   50POPC    CD 2561   3.909   5.431   1.028  0.2495  0.0129 -0.2776
   50POPC    OE 2562   3.874   5.568   1.045 -0.4094 -0.1930  0.0650
   50POPC   C1A 2563   3.756   5.611   1.000  0.0766  0.0011 -1.0432
   50POPC    OF 2564   3.675   5.537   0.944 -0.0275 -0.4668 -0.2786
   50POPC   C1B 2565   3.728   5.751   1.038 -1.1020 -0.5215  0.0563
   50POPC   C1C 2566   3.700   5.841   0.917 -0.6738 -0.4054  0.0418
   50POPC   C1D 2567   3.666   5.985   0.955  0.1695 -0.2059  0.0570
   50POPC   C1E 2568   3.544   6.001   1.047  0.4819  0.1664  0.4109
   50POPC   C1F 2569   3.506   6.149   1.042  0.2494  0.0985  0.1285
   50POPC   C1G 2570   3.387   6.183   1.131  0.0064 -0.1274 -0.1076
   50POPC   C1H 2571   3.430   6.183   1.278 -0.2524  0.6794 -0.0257
   50POPC   C1I 2572   3.306   6.212   1.363 -0.6895 -0.0491 -0.4054
   50POPC   C1J 2573   3.228   6.115   1.409 -0.5867  0.0031 -0.1178
   50POPC   C1K 2574   3.254   5.965   1.395  0.3845  0.1328  0.2413
   50POPC   C1L 2575   3.299   5.881   1.514 -0.0347 -0.3954  0.0344
   50POPC   C1M 2576   3.440   5.905   1.570 -0.1235  0.0941  0.0546
   50POPC   C1N 2577   3.446   5.815   1.694  0.6087 -0.0436 -0.0771
   50POPC   C1O 2578   3.584   5.820   1.758  0.5681  0.1071 -0.0019
   50POPC   C1P 2579   3.713   5.803   1.678  0.6900  0.0227  0.2105
   50POPC   C1Q 2580   3.719   5.662   1.620  0.1382  0.1464 -0.1555
   50POPC   C1R 2581   3.863   5.631   1.580  0.2317  0.6951 -0.2525
   50POPC    CE 2582   3.921   5.353   1.159 -0.0823 -0.3298 -0.4460
   50POPC    OG 2583   3.942   5.212   1.174  1.0236 -0.1606 -0.2753
   50POPC   C2A 2584   3.885   5.121   1.096  0.3585  0.1602 -0.1738
   50POPC    OH 2585   3.777   5.132   1.039  0.4554 -0.0986 -0.4099
   50POPC   C2B 2586   3.937   4.983   1.108  0.1277  0.1051  0.2041
   50POPC   C2C 2587   3.907   4.913   1.241 -0.3973 -0.1522 -0.0486
   50POPC   C2D 2588   4.000   4.792   1.254 -0.0136  0.1920  0.4136
   50POPC   C2E 2589   4.040   4.753   1.397  0.1428 -0.2488  0.2493
   50POPC   C2F 2590   3.921   4.719   1.487 -0.0877  0.2794  0.1446
   50POPC   C2G 2591   3.964   4.678   1.628 -0.1425 -0.0883  0.0554
   50POPC   C2H 2592   4.014   4.799   1.708 -0.1811 -0.1670  0.1983
   50POPC   C2I 2593   4.107   4.759   1.823 -0.1259  0.2589  0.3042
   50POPC   C2J 2594   4.168   4.888   1.877  0.2512  0.1281  0.1914
   50POPC   C2K 2595   4.255   4.873   2.002 -0.1184  0.1222  0.4509
   50POPC   C2L 2596   4.341   5.000   2.010  0.0408  0.0424  0.0539
   50POPC   C2M 2597   4.449   4.990   2.117 -0.3918 -0.2419  0.4705
   50POPC   C2N 2598   4.504   5.126   2.161  0.7012 -0.3899 -0.3916
   50POPC   C2O 2599   4.589   5.127   2.288 -0.1353  0.3931  0.1701
   50POPC   C2P 2600   4.624   5.267   2.339  0.1382  0.1239  0.7294
   51POPC   CN1 2601   1.964   6.141   0.189 -0.2542  0.0088 -0.0665
   51POPC   CN2 2602   1.988   6.055   0.414 -0.1962 -0.1241  0.1890
   51POPC   CN3 2603   2.052   6.268   0.359 -0.1803 -0.2099  0.4814
   51POPC   NTM 2604   2.053   6.131   0.306 -0.4536 -0.0583  0.0798
   51POPC    CA 2605   2.182   6.071   0.270 -0.1727  0.2279  0.5957
   51POPC    CB 2606   2.281   6.138   0.174 -0.0949 -0.1779  0.3900
   51POPC    OA 2607   2.321   6.272   0.202 -0.2971  0.2049 -1.0783
   51POPC     P 2608   2.479   6.297   0.179 -0.0980  0.1405  0.1168
   51POPC    OB 2609   2.484   0.105   0.178  0.6264  0.1168  0.3119
   51POPC    OC 2610   2.547   6.218   0.074 -0.2125  0.0542  0.1069
   51POPC    OD 2611   2.536   6.230   0.313 -0.2098  0.0504  0.1197
   51POPC    CC 2612   2.500   6.316   0.421 -0.0315 -0.0815  0.2862
   51POPC    CD 2613   2.536   6.251   0.554  0.1771  0.0898  0.3134
   51POPC    OE 2614   2.452   6.262   0.669  0.4247 -0.0846  0.5133
   51POPC   C1A 2615   2.336   6.198   0.678  0.2388  0.2209  0.3062
   51POPC    OF 2616   2.285   6.141   0.582  0.2144 -0.3349  0.6433
   51POPC   C1B 2617   2.268   6.209   0.809 -0.4880  0.2078 -0.0678
   51POPC   C1C 2618   2.189   6.088   0.860 -0.0983  0.0238  0.1042
   51POPC   C1D 2619   2.101   6.119   0.981 -0.7062 -0.4411 -0.2117
   51POPC   C1E 2620   1.982   6.209   0.946 -0.4297 -0.1279 -0.3447
   51POPC   C1F 2621   1.867   6.207   1.046 -0.2874 -0.3575 -0.1856
   51POPC   C1G 2622   1.730   6.269   1.015 -0.3590 -0.2181  0.3894
   51POPC   C1H 2623   1.632   6.239   1.128 -0.2754 -0.3464  0.4286
   51POPC   C1I 2624   1.589   6.094   1.110  0.1580 -0.3511 -0.6079
   51POPC   C1J 2625   1.549   6.019   1.212 -0.3309  0.4579 -0.1968
   51POPC   C1K 2626   1.569   6.076   1.353  0.3602  0.0815 -0.1368
   51POPC   C1L 2627   1.472   6.005   1.447  0.6232  0.2437  0.2556
   51POPC   C1M 2628   1.484   6.049   1.593 -0.0969  0.5938  0.2140
   51POPC   C1N 2629   1.393   5.979   1.695  0.2963  0.0948  0.2228
   51POPC   C1O 2630   1.426   6.017   1.839  0.2962  0.2956  0.1697
   51POPC   C1P 2631   1.319   5.953   1.927  0.0743 -0.0361 -0.3399
   51POPC   C1Q 2632   1.372   5.959   2.070 -0.7261 -0.1533 -0.0315
   51POPC   C1R 2633   1.371   6.100   2.129  0.2054 -0.1114 -0.0930
   51POPC    CE 2634   2.687   6.276   0.567  0.2028  0.2821 -0.3522
   51POPC    OG 2635   2.743   6.199   0.673 -0.4125  0.2907 -0.0182
   51POPC   C2A 2636   2.875   6.195   0.682 -0.4474  0.3784  0.6284
   51POPC    OH 2637   2.947   6.253   0.601 -0.5304 -0.3433  0.0233
   51POPC   C2B 2638   2.930   6.106   0.786 -0.8353  0.0549  0.5565
   51POPC   C2C 2639   2.944   6.167   0.926  0.1556  0.2130  0.3942
   51POPC   C2D 2640   2.824   6.217   1.006 -0.1099 -0.3428  0.3503
   51POPC   C2E 2641   2.723   6.106   1.032 -0.0117 -0.4964  0.0761
   51POPC   C2F 2642   2.633   6.141   1.151 -0.0794 -0.4450  0.0100
   51POPC   C2G 2643   2.698   6.109   1.286  0.5653  0.3287 -0.1091
   51POPC   C2H 2644   2.611   6.143   1.407  0.4999 -0.0202 -0.0566
   51POPC   C2I 2645   2.688   6.123   1.538 -0.4637 -0.7502  0.4060
   51POPC   C2J 2646   2.607   6.170   1.659 -0.3921 -0.0432  0.1807
   51POPC   C2K 2647   2.673   6.152   1.796  0.0467 -0.1738 -0.0466
   51POPC   C2L 2648   2.586   6.205   1.910  0.0015 -0.4607  0.0530
   51POPC   C2M 2649   2.613   6.138   2.046  0.0334 -0.1843  0.1826
   51POPC   C2N 2650   2.542   6.210   2.160  0.0110  0.3178 -0.1433
   51POPC   C2O 2651   2.597   6.163   2.295 -0.6360  0.2726  0.1120
   51POPC   C2P 2652   2.564   6.267   2.403  0.5271  0.8524 -0.0745
   52POPC   CN1 2653   1.355   5.621   0.746 -0.6013  0.0178  0.5408
   52POPC   CN2 2654   1.259   5.735   0.565  1.0126  0.2635  0.2875
   52POPC   CN3 2655   1.140   5.555   0.655 -0.1838  0.5731 -0.2998
   52POPC   NTM 2656   1.276   5.601   0.623  0.0854  0.0547  0.0909
   52POPC    CA 2657   1.334   5.502   0.531  0.3410 -0.3549  0.6808
   52POPC    CB 2658   1.430   5.560   0.427  0.2127 -0.3754  0.5486
   52POPC    OA 2659   1.555   5.601   0.483  0.3006  0.1246 -0.0019
   52POPC     P 2660   1.624   5.707   0.383  0.4512 -0.0296 -0.0618
   52POPC    OB 2661   1.597   5.674   0.242 -0.5522 -0.4127  0.2133
   52POPC    OC 2662   1.761   5.749   0.422  0.2611 -0.1273  0.7441
   52POPC    OD 2663   1.532   5.833   0.422  0.2931 -0.1975  0.1100
   52POPC    CC 2664   1.587   5.952   0.365  0.1660 -0.3742 -0.3776
   52POPC    CD 2665   1.508   6.078   0.399  0.0462 -0.5267 -0.0876
   52POPC    OE 2666   1.556   6.200   0.342 -0.0446 -0.3489  0.2131
   52POPC   C1A 2667   1.506   6.241   0.225 -0.2912 -0.1655  0.3828
   52POPC    OF 2668   1.490   6.155   0.138  0.3565 -0.2201  0.3128
   52POPC   C1B 2669   1.503   0.047   0.204 -0.2801 -0.2220 -0.0127
   52POPC   C1C 2670   1.373   0.107   0.257 -0.2924 -0.1957 -0.0727
   52POPC   C1D 2671   1.370   0.099   0.410  0.2224 -0.2821 -0.0651
   52POPC   C1E 2672   1.237   0.162   0.451  0.1767 -0.1066 -0.4724
   52POPC   C1F 2673   1.115   0.070   0.441 -0.2329  0.4322 -0.5011
   52POPC   C1G 2674   0.991   0.153   0.475 -0.4357 -0.0395 -0.0819
   52POPC   C1H 2675   0.999   0.186   0.624 -0.1241  0.2932 -0.1705
   52POPC   C1I 2676   0.864   0.254   0.650 -0.1501  0.2266 -0.1297
   52POPC   C1J 2677   0.801   0.226   0.763  0.0978  0.1162 -0.0198
   52POPC   C1K 2678   0.856   0.121   0.861 -0.5034 -0.3688 -0.1972
   52POPC   C1L 2679   0.913   0.185   0.988  0.6670 -0.6359 -0.5737
   52POPC   C1M 2680   0.974   0.078   1.077  0.3909 -0.8348 -0.6206
   52POPC   C1N 2681   1.042   0.143   1.198 -0.2157 -0.6145 -0.3965
   52POPC   C1O 2682   1.126   0.054   1.290  0.0418  0.0181 -0.0096
   52POPC   C1P 2683   1.186   0.147   1.395  0.6673  0.0099 -0.3541
   52POPC   C1Q 2684   1.291   0.080   1.483  0.4839  0.3619  0.1354
   52POPC   C1R 2685   1.331   0.181   1.591  0.3669 -0.0494  0.5654
   52POPC    CE 2686   1.490   6.086   0.550  0.3596  0.1891 -0.0815
   52POPC    OG 2687   1.599   6.040   0.632  0.2813  0.2141  0.0371
   52POPC   C2A 2688   1.564   5.955   0.728  0.1781  0.3740  0.1430
   52POPC    OH 2689   1.452   5.905   0.734  0.1795  0.2662 -0.6041
   52POPC   C2B 2690   1.686   5.908   0.798  0.3320  0.1859 -0.2426
   52POPC   C2C 2691   1.677   5.757   0.822 -0.2433  0.2281 -0.1842
   52POPC   C2D 2692   1.797   5.704   0.900 -0.3870  0.2599  0.0598
   52POPC   C2E 2693   1.802   5.779   1.033 -0.0738  0.2868  0.0341
   52POPC   C2F 2694   1.886   5.699   1.134 -0.4315 -0.1284  0.0086
   52POPC   C2G 2695   1.911   5.758   1.273  0.1873  0.1366 -0.2109
   52POPC   C2H 2696   1.978   5.896   1.268 -0.1638  0.2959 -0.5668
   52POPC   C2I 2697   2.024   5.926   1.410  0.1000 -0.2727 -0.5275
   52POPC   C2J 2698   2.123   6.043   1.411  0.1412 -0.3093  0.1138
   52POPC   C2K 2699   2.149   6.094   1.553 -0.4832 -0.0773  0.1442
   52POPC   C2L 2700   2.038   6.187   1.602 -0.3135  0.3878 -0.3364
   52POPC   C2M 2701   2.075   6.263   1.730 -0.8880  0.1105 -0.0003
   52POPC   C2N 2702   2.163   0.045   1.705 -0.4062 -0.1783  0.2784
   52POPC   C2O 2703   2.178   0.134   1.828 -0.4093 -0.2856  0.3555
   52POPC   C2P 2704   2.206   0.277   1.781  0.0393 -0.3950  0.2886
   53POPC   CN1 2705   6.172   1.871   5.768 -0.0818 -0.6322  0.1335
   53POPC   CN2 2706   6.029   1.834   5.939 -0.4854  0.0550  0.3827
   53POPC   CN3 2707   5.960   1.992   5.767  0.4618  0.4313 -0.1650
   53POPC   NTM 2708   6.071   1.941   5.849 -0.0479 -0.4335  0.0023
   53POPC    CA 2709   6.142   2.053   5.913 -0.4287 -0.3924  0.3543
   53POPC    CB 2710   6.072   2.126   0.027 -0.4767 -0.5054  0.3969
   53POPC    OA 2711   5.944   2.187   0.009 -0.3550 -0.3707 -0.0174
   53POPC     P 2712   5.879   2.237   0.148  0.3802  0.2558  0.1066
   53POPC    OB 2713   5.752   2.311   0.132  0.4356  0.3190 -0.0527
   53POPC    OC 2714   5.993   2.296   0.222  0.5205  0.1362 -0.0144
   53POPC    OD 2715   5.845   2.098   0.221 -0.0637  0.2633 -0.0844
   53POPC    CC 2716   5.715   2.049   0.185  0.0814 -0.4162  0.3034
   53POPC    CD 2717   5.686   1.899   0.194  0.0855 -0.4269  0.1359
   53POPC    OE 2718   5.609   1.838   0.091 -0.3852 -0.1479  0.3173
   53POPC   C1A 2719   5.652   1.822   5.966  0.1003  0.3090  0.4266
   53POPC    OF 2720   5.728   1.902   5.912  0.1895  0.1686  0.3446
   53POPC   C1B 2721   5.551   1.738   5.899  0.4060  0.1550  0.1562
   53POPC   C1C 2722   5.565   1.714   5.748  0.0274 -0.0748  0.1554
   53POPC   C1D 2723   5.630   1.577   5.725 -0.3230 -0.1607 -0.3279
   53POPC   C1E 2724   5.776   1.557   5.765 -0.4221 -0.2655 -0.0132
   53POPC   C1F 2725   5.835   1.426   5.713 -0.1291 -0.0548 -0.2235
   53POPC   C1G 2726   5.979   1.409   5.762 -0.0300  0.1488 -0.4447
   53POPC   C1H 2727   5.989   1.369   5.910 -0.2264  0.1746 -0.4238
   53POPC   C1I 2728   5.944   1.226   5.943 -0.0523  0.1328 -0.3666
   53POPC   C1J 2729   5.876   1.196   0.053  0.1292  0.5715 -0.1329
   53POPC   C1K 2730   5.847   1.312   0.149  0.2036  0.4761  0.0068
   53POPC   C1L 2731   5.698   1.336   0.172  0.1709 -0.1830  0.5080
   53POPC   C1M 2732   5.672   1.478   0.225  0.2248  0.0527 -0.0882
   53POPC   C1N 2733   5.708   1.488   0.373 -0.0232  0.3095 -0.0445
   53POPC   C1O 2734   5.591   1.440   0.459  0.4796 -0.0282  0.4613
   53POPC   C1P 2735   5.625   1.412   0.606 -0.2610  0.1503  0.6754
   53POPC   C1Q 2736   5.507   1.410   0.702 -0.3948 -0.5176  0.5066
   53POPC   C1R 2737   5.417   1.534   0.710 -0.0090 -0.1512 -0.6876
   53POPC    CE 2738   5.633   1.879   0.336 -0.2155  0.2007  0.1172
   53POPC    OG 2739   5.712   1.920   0.448 -0.2976  0.0674  0.2255
   53POPC   C2A 2740   5.675   1.884   0.570 -0.0580  0.3744  0.3910
   53POPC    OH 2741   5.589   1.796   0.577  0.4437 -0.2555 -0.9220
   53POPC   C2B 2742   5.752   1.940   0.683  0.7393 -0.3125  0.2016
   53POPC   C2C 2743   5.771   1.851   0.806 -0.0594 -0.6442  0.0918
   53POPC   C2D 2744   5.837   1.922   0.925  0.2779  0.2005 -0.5935
   53POPC   C2E 2745   5.741   2.018   0.994  0.2957 -0.2967  0.1294
   53POPC   C2F 2746   5.812   2.075   1.117 -0.0907  0.3699  0.0496
   53POPC   C2G 2747   5.723   2.176   1.190 -0.1813  0.4627 -0.1875
   53POPC   C2H 2748   5.798   2.258   1.296 -0.0412  0.0942  0.0004
   53POPC   C2I 2749   5.702   2.356   1.363  0.0686  0.1652  0.0534
   53POPC   C2J 2750   5.771   2.406   1.491 -0.1807  0.1541  0.1923
   53POPC   C2K 2751   5.696   2.521   1.559  0.4084  0.4441  0.3568
   53POPC   C2L 2752   5.568   2.458   1.615  0.2175  0.5372  0.0282
   53POPC   C2M 2753   5.527   2.519   1.749 -0.0468  0.3506  0.0322
   53POPC   C2N 2754   5.376   2.497   1.767  0.0713 -0.0927  0.5025
   53POPC   C2O 2755   5.313   2.559   1.891 -0.4885  0.5063 -0.0716
   53POPC   C2P 2756   5.320   2.457   2.005 -0.6890  0.1499 -0.3763
   54POPC   CN1 2757   5.189   1.373   0.192 -0.3405  0.2056 -0.0064
   54POPC   CN2 2758   5.055   1.182   0.235 -0.8085  0.4393 -0.9844
   54POPC   CN3 2759   5.248   1.218   0.368  0.1129  0.8804 -0.3957
   54POPC   NTM 2760   5.193   1.232   0.232 -0.6814  0.1506 -0.1608
   54POPC    CA 2761   5.266   1.157   0.129 -0.8698  0.5408 -0.5833
   54POPC    CB 2762   5.286   1.005   0.142 -0.2400  0.6410 -0.3471
   54POPC    OA 2763   5.166   0.931   0.120  0.2235 -0.1567 -0.2357
   54POPC     P 2764   5.182   0.772   0.133  0.2915 -0.1398 -0.1126
   54POPC    OB 2765   5.314   0.718   0.092 -0.0802 -0.8317 -0.4176
   54POPC    OC 2766   5.063   0.730   0.055  0.0111  0.4090  0.0129
   54POPC    OD 2767   5.155   0.758   0.291 -0.4219  0.0441 -0.2132
   54POPC    CC 2768   5.023   0.714   0.321 -0.2763 -0.0296  0.3305
   54POPC    CD 2769   4.929   0.824   0.369 -0.1453  0.0681  0.3640
   54POPC    OE 2770   4.961   0.834   0.508  0.0207 -0.3984  0.3612
   54POPC   C1A 2771   5.013   0.942   0.566 -0.2576 -0.0527 -0.0263
   54POPC    OF 2772   4.992   1.049   0.510 -0.2966  0.0250  0.1350
   54POPC   C1B 2773   5.066   0.939   0.704  0.0862  0.6715 -0.1364
   54POPC   C1C 2774   5.208   0.883   0.704 -0.0962  0.1965  0.0135
   54POPC   C1D 2775   5.264   0.877   0.847  0.3610 -0.1431 -0.1774
   54POPC   C1E 2776   5.185   0.772   0.925  0.0610  0.3491  0.1838
   54POPC   C1F 2777   5.272   0.744   1.047 -0.0421 -0.6815  0.0247
   54POPC   C1G 2778   5.192   0.681   1.162 -0.1437 -1.1950 -0.3226
   54POPC   C1H 2779   5.280   0.638   1.279  0.1254 -0.2660 -0.1685
   54POPC   C1I 2780   5.189   0.594   1.394  0.5597 -0.2019  0.2007
   54POPC   C1J 2781   5.243   0.542   1.504  0.4238  0.0589  0.3917
   54POPC   C1K 2782   5.391   0.505   1.516  0.4690 -0.0154 -0.3381
   54POPC   C1L 2783   5.419   0.361   1.558 -0.0701  0.0918  0.4167
   54POPC   C1M 2784   5.555   0.305   1.514  0.0003  0.0614  0.6703
   54POPC   C1N 2785   5.670   0.371   1.590 -0.0943  0.8113  0.1779
   54POPC   C1O 2786   5.668   0.342   1.740  0.5937 -0.3407 -0.0243
   54POPC   C1P 2787   5.737   0.442   1.832  0.0826  0.1687 -0.1902
   54POPC   C1Q 2788   5.886   0.457   1.800  0.2246 -0.4372  0.1733
   54POPC   C1R 2789   5.970   0.329   1.790 -0.0267 -0.5737 -0.2447
   54POPC    CE 2790   4.778   0.804   0.349 -0.0411 -0.4486  0.0813
   54POPC    OG 2791   4.754   0.747   0.220 -0.0492  0.1051 -0.1670
   54POPC   C2A 2792   4.629   0.720   0.184 -0.1248  0.1644  0.0495
   54POPC    OH 2793   4.538   0.767   0.252  0.0438  0.5510  0.0119
   54POPC   C2B 2794   4.623   0.645   0.057  0.1761  0.1137  0.0634
   54POPC   C2C 2795   4.508   0.544   0.055  0.2585  0.0231 -0.5811
   54POPC   C2D 2796   4.521   0.443   0.170 -0.4795 -0.1567 -0.6481
   54POPC   C2E 2797   4.407   0.341   0.172 -0.2807 -0.3705 -0.2566
   54POPC   C2F 2798   4.415   0.248   0.294  0.6137 -0.6706 -0.5349
   54POPC   C2G 2799   4.293   0.157   0.314 -0.0188  0.2630 -0.0583
   54POPC   C2H 2800   4.170   0.230   0.366 -0.3112 -0.0269 -0.3410
   54POPC   C2I 2801   4.201   0.305   0.495 -0.1978 -0.4959 -0.0942
   54POPC   C2J 2802   4.079   0.381   0.548  0.2032  0.1114 -0.0252
   54POPC   C2K 2803   3.977   0.282   0.605  0.0927 -0.0206 -0.4489
   54POPC   C2L 2804   3.852   0.350   0.661  0.4350 -0.1184  0.4426
   54POPC   C2M 2805   3.901   0.428   0.784 -0.3652  0.0877  0.6346
   54POPC   C2N 2806   3.774   0.490   0.842 -0.7540 -0.0544 -0.0535
   54POPC   C2O 2807   3.817   0.600   0.939 -0.2299 -0.1178 -0.2099
   54POPC   C2P 2808   3.698   0.675   1.000  0.1624  0.2496  0.1120
   55POPC   CN1 2809   1.839   0.773   0.146 -0.7626  0.3099  0.0828
   55POPC   CN2 2810   1.760   0.870   5.933 -0.0867 -0.4455 -0.1401
   55POPC   CN3 2811   1.921   0.696   5.945 -0.1331 -0.0822  0.4057
   55POPC   NTM 2812   1.875   0.819   0.011 -0.0741  0.0623  0.1762
   55POPC    CA 2813   1.988   0.913   0.018  0.2247 -0.2939  0.1279
   55POPC    CB 2814   1.958   1.059   0.054 -0.1026 -0.2825 -0.1832
   55POPC    OA 2815   1.884   1.072   0.175  0.5093 -0.3520  0.2054
   55POPC     P 2816   1.854   1.225   0.218  0.2489 -0.3014 -0.1512
   55POPC    OB 2817   1.779   1.221   0.345  0.2708  0.0980 -0.1240
   55POPC    OC 2818   1.800   1.302   0.104 -0.0787  0.4563  0.5134
   55POPC    OD 2819   2.007   1.265   0.248  0.1449 -0.1970  0.2454
   55POPC    CC 2820   2.054   1.246   0.382 -0.3581  0.4837  0.5224
   55POPC    CD 2821   2.173   1.330   0.427  0.0597  0.1330  0.0911
   55POPC    OE 2822   2.242   1.260   0.531 -0.1621 -0.5395 -0.2091
   55POPC   C1A 2823   2.361   1.295   0.577 -0.2952 -0.1574 -0.1519
   55POPC    OF 2824   2.436   1.375   0.521  0.4239 -0.2363  0.6702
   55POPC   C1B 2825   2.399   1.215   0.695 -0.1953  0.3999  0.2011
   55POPC   C1C 2826   2.369   1.296   0.821  0.0742  0.2531  0.3614
   55POPC   C1D 2827   2.405   1.223   0.950  0.4136  0.0955  0.1762
   55POPC   C1E 2828   2.329   1.092   0.974  0.3905  0.0477 -0.1545
   55POPC   C1F 2829   2.355   1.042   1.116  0.0510 -0.3260 -0.2232
   55POPC   C1G 2830   2.317   0.896   1.144  0.1159 -0.3460 -0.2383
   55POPC   C1H 2831   2.414   0.798   1.078  0.0670 -0.6702  0.1743
   55POPC   C1I 2832   2.340   0.665   1.059 -0.0853 -0.4905 -0.4853
   55POPC   C1J 2833   2.416   0.557   1.066  0.2955 -0.2050 -0.1780
   55POPC   C1K 2834   2.564   0.562   1.103  0.1040 -0.4351  0.6445
   55POPC   C1L 2835   2.624   0.422   1.123  0.4898 -0.3651 -0.0068
   55POPC   C1M 2836   2.766   0.440   1.175  0.4701 -0.2901  0.0206
   55POPC   C1N 2837   2.838   0.307   1.202  0.1695 -0.6030 -0.6995
   55POPC   C1O 2838   2.977   0.326   1.262 -0.2064 -0.0351  0.0271
   55POPC   C1P 2839   3.016   0.201   1.341  0.4528  0.1755  0.0462
   55POPC   C1Q 2840   2.914   0.170   1.451  0.0632  0.0283 -0.3508
   55POPC   C1R 2841   2.966   0.048   1.528 -0.0669 -0.0044 -0.3156
   55POPC    CE 2842   2.119   1.470   0.456  0.1695  0.2651 -0.3380
   55POPC    OG 2843   2.017   1.511   0.548  0.2337  0.5840 -0.4050
   55POPC   C2A 2844   1.999   1.642   0.560  0.1776  0.5363  0.0381
   55POPC    OH 2845   2.011   1.712   0.461  0.1655 -0.4002 -0.6394
   55POPC   C2B 2846   1.936   1.699   0.682 -0.5758 -0.0333 -0.0778
   55POPC   C2C 2847   1.988   1.828   0.745  0.3680 -0.1474 -0.6046
   55POPC   C2D 2848   2.126   1.804   0.807  0.0893  0.2611  0.1844
   55POPC   C2E 2849   2.113   1.719   0.934  0.1217 -0.3234 -0.1970
   55POPC   C2F 2850   2.229   1.756   1.028 -0.2719  0.3544  0.0276
   55POPC   C2G 2851   2.214   1.684   1.162 -0.6411  0.1770 -0.1078
   55POPC   C2H 2852   2.312   1.755   1.255 -0.2569 -0.3499 -0.1068
   55POPC   C2I 2853   2.310   1.681   1.388 -0.5345 -0.0588  0.0529
   55POPC   C2J 2854   2.383   1.546   1.385  0.5111  0.4858  0.3223
   55POPC   C2K 2855   2.373   1.469   1.517 -0.0932  0.4458  0.2577
   55POPC   C2L 2856   2.461   1.532   1.625 -0.1184  0.7968  0.0758
   55POPC   C2M 2857   2.467   1.457   1.758  0.4300 -0.0188 -0.4033
   55POPC   C2N 2858   2.529   1.317   1.750 -0.1532 -0.3316  0.4024
   55POPC   C2O 2859   2.568   1.267   1.889  0.1215  0.4441  0.6068
   55POPC   C2P 2860   2.448   1.266   1.984 -0.3074  0.4870  0.0701
   56POPC   CN1 2861   2.677   0.773   5.822 -0.1243  0.1399 -0.0235
   56POPC   CN2 2862   2.525   0.687   5.977 -0.3201  0.2572 -0.2719
   56POPC   CN3 2863   2.452   0.861   5.823  0.0421  0.1557 -0.1224
   56POPC   NTM 2864   2.562   0.810   5.906 -0.0021  0.3456  0.0516
   56POPC    CA 2865   2.606   0.913   0.002 -0.0141 -0.1186  0.5602
   56POPC    CB 2866   2.498   0.968   0.096 -0.5240  0.3151 -0.2617
   56POPC    OA 2867   2.404   0.882   0.161 -0.2158 -0.0609 -0.3081
   56POPC     P 2868   2.314   0.968   0.263  0.2459 -0.0746  0.1168
   56POPC    OB 2869   2.194   0.886   0.290  0.1896  0.0632  0.2940
   56POPC    OC 2870   2.310   1.110   0.220 -0.1729 -0.1817 -0.1981
   56POPC    OD 2871   2.409   0.973   0.393  0.2336  0.2136  0.1161
   56POPC    CC 2872   2.375   0.891   0.505 -0.3332 -0.2883 -0.4150
   56POPC    CD 2873   2.445   0.755   0.512  0.2090  0.0145  0.2249
   56POPC    OE 2874   2.381   0.668   0.606 -0.1831 -0.0533 -0.1010
   56POPC   C1A 2875   2.393   0.537   0.588  0.2318 -0.0461  0.1235
   56POPC    OF 2876   2.423   0.491   0.478  0.1242  0.2071 -0.0107
   56POPC   C1B 2877   2.336   0.452   0.695 -0.1534 -0.5834 -0.4962
   56POPC   C1C 2878   2.391   0.310   0.699  0.3121 -0.3948 -0.0703
   56POPC   C1D 2879   2.527   0.288   0.766  0.3790 -0.2746 -0.1675
   56POPC   C1E 2880   2.654   0.350   0.707  0.4169 -0.0552  0.1451
   56POPC   C1F 2881   2.782   0.291   0.767  0.3918 -0.5337 -0.2710
   56POPC   C1G 2882   2.901   0.367   0.708  0.5886  0.0994  0.9179
   56POPC   C1H 2883   2.926   0.504   0.772 -0.0766  0.5998  0.1166
   56POPC   C1I 2884   3.048   0.560   0.699  0.3890 -0.2059  0.2611
   56POPC   C1J 2885   3.126   0.660   0.741  0.1281  0.3163 -0.4657
   56POPC   C1K 2886   3.093   0.723   0.876  0.2027 -0.3258 -0.1444
   56POPC   C1L 2887   3.228   0.752   0.943  0.0124  0.9344 -0.2785
   56POPC   C1M 2888   3.221   0.851   1.059  0.4935  0.2467  0.3495
   56POPC   C1N 2889   3.332   0.820   1.160 -0.0414 -0.3425  0.7555
   56POPC   C1O 2890   3.312   0.892   1.293  0.1525  0.0838  0.5550
   56POPC   C1P 2891   3.429   0.862   1.387  0.5847  0.0822  0.0196
   56POPC   C1Q 2892   3.406   0.924   1.525 -0.5463 -0.1839 -0.0416
   56POPC   C1R 2893   3.409   1.076   1.539  1.1105 -0.1545 -0.5055
   56POPC    CE 2894   2.594   0.783   0.527  0.2064 -0.0579  0.3859
   56POPC    OG 2895   2.620   0.830   0.659 -0.0828 -0.1305  0.4690
   56POPC   C2A 2896   2.739   0.887   0.679  0.0036 -0.0503 -0.2565
   56POPC    OH 2897   2.805   0.925   0.582 -0.4286  0.2315 -0.4447
   56POPC   C2B 2898   2.784   0.907   0.819 -0.1199  0.2274 -0.2543
   56POPC   C2C 2899   2.745   1.042   0.878 -0.4676  0.1831 -0.3830
   56POPC   C2D 2900   2.732   1.047   1.030  0.5461 -0.0414 -0.2833
   56POPC   C2E 2901   2.843   1.130   1.096  0.0811  0.2636  0.1279
   56POPC   C2F 2902   2.833   1.142   1.248  0.2672 -0.0489  0.1666
   56POPC   C2G 2903   2.812   1.009   1.321  0.9772 -0.2613 -0.0096
   56POPC   C2H 2904   2.793   1.023   1.472  0.3436 -0.0638 -0.1039
   56POPC   C2I 2905   2.815   0.888   1.540  0.2097 -0.0445 -0.0203
   56POPC   C2J 2906   2.700   0.790   1.516  0.0102  0.2102 -0.1083
   56POPC   C2K 2907   2.566   0.827   1.580 -0.4278 -0.0838 -0.8379
   56POPC   C2L 2908   2.464   0.714   1.568 -0.1755 -0.4630  0.4901
   56POPC   C2M 2909   2.319   0.756   1.590  0.0152  0.3711  0.1955
   56POPC   C2N 2910   2.234   0.654   1.514  0.4103  0.4580 -0.3650
   56POPC   C2O 2911   2.086   0.679   1.543  0.1986 -1.0769 -0.0416
   56POPC   C2P 2912   2.010   0.547   1.528 -0.6599 -0.5712 -0.1835
   57POPC   CN1 2913   2.326   0.430   0.207 -0.5715 -0.0610  0.1349
   57POPC   CN2 2914   2.120   0.518   0.289 -0.6310  0.2643  0.2720
   57POPC   CN3 2915   2.172   0.289   0.337  0.4023  0.3518 -0.0344
   57POPC   NTM 2916   2.186   0.397   0.238 -0.7497  0.3843 -0.1787
   57POPC    CA 2917   2.131   0.349   0.111 -0.2961 -0.0609 -0.2085
   57POPC    CB 2918   1.983   0.317   0.087 -0.4654 -0.0728  0.7970
   57POPC    OA 2919   1.889   0.424   0.094 -0.1288  0.2476  0.5039
   57POPC     P 2920   1.744   0.378   0.039  0.1932  0.0316 -0.1768
   57POPC    OB 2921   1.725   0.237   0.082  0.0285 -0.0803 -0.6082
   57POPC    OC 2922   1.731   0.428   5.901 -0.5063 -0.5070 -0.3120
   57POPC    OD 2923   1.662   0.479   0.134 -0.1075 -0.1160 -0.2794
   57POPC    CC 2924   1.631   0.415   0.258  0.3392  1.0534  0.4532
   57POPC    CD 2925   1.734   0.429   0.370  0.9321  0.1117  0.0464
   57POPC    OE 2926   1.712   0.330   0.471  0.0894  0.1259 -0.1108
   57POPC   C1A 2927   1.791   0.224   0.481 -0.6180 -0.4075 -0.1245
   57POPC    OF 2928   1.880   0.207   0.398 -0.5937 -0.0923 -0.1628
   57POPC   C1B 2929   1.773   0.156   0.611 -0.0600  0.2693  0.3108
   57POPC   C1C 2930   1.895   0.178   0.701  0.0563  0.5262  0.0924
   57POPC   C1D 2931   1.886   0.319   0.760 -0.0206  0.5502  0.0223
   57POPC   C1E 2932   1.880   0.327   0.913 -0.0688 -0.1659  0.0620
   57POPC   C1F 2933   2.006   0.268   0.977 -0.2930 -0.5148  0.1823
   57POPC   C1G 2934   2.013   0.291   1.128 -0.4124 -0.1238  0.1304
   57POPC   C1H 2935   2.153   0.247   1.173 -0.3365  0.0052  0.0198
   57POPC   C1I 2936   2.184   0.098   1.187  0.0503  0.0685 -0.1648
   57POPC   C1J 2937   2.293   0.049   1.246  0.5092 -0.0971 -1.1353
   57POPC   C1K 2938   2.398   0.147   1.301  0.3944 -0.3380 -0.4788
   57POPC   C1L 2939   2.413   0.141   1.453 -0.5249 -0.0264 -0.3716
   57POPC   C1M 2940   2.508   0.246   1.510  0.2874 -0.8572 -0.1657
   57POPC   C1N 2941   2.561   0.209   1.649 -0.3015  0.5923  0.4706
   57POPC   C1O 2942   2.656   0.324   1.681  0.4726  0.1965 -0.3668
   57POPC   C1P 2943   2.726   0.311   1.817 -0.3346 -0.6697 -0.0166
   57POPC   C1Q 2944   2.846   0.216   1.819  0.2520  0.0744  0.5041
   57POPC   C1R 2945   2.874   0.167   1.961  0.0976  0.0563  0.5278
   57POPC    CE 2946   1.741   0.572   0.425 -0.0599  0.0840  0.2626
   57POPC    OG 2947   1.870   0.618   0.464  0.1217 -0.1055 -0.1071
   57POPC   C2A 2948   1.882   0.715   0.554  0.0238  0.1713 -0.3915
   57POPC    OH 2949   1.798   0.805   0.560 -0.3864 -0.2500  0.4329
   57POPC   C2B 2950   2.014   0.729   0.619 -0.0771 -0.1350 -0.1159
   57POPC   C2C 2951   2.037   0.844   0.717 -0.0507 -0.1077 -0.1541
   57POPC   C2D 2952   1.947   0.851   0.840  0.1613 -0.2478  0.0083
   57POPC   C2E 2953   1.974   0.740   0.942 -0.0868 -0.4695 -0.1668
   57POPC   C2F 2954   1.881   0.764   1.061 -0.3621  0.1608 -0.5087
   57POPC   C2G 2955   1.737   0.724   1.028 -0.5199  0.3858 -0.0973
   57POPC   C2H 2956   1.628   0.782   1.119 -0.8218 -0.2552 -0.0433
   57POPC   C2I 2957   1.490   0.745   1.063 -0.4344 -0.4765 -0.8692
   57POPC   C2J 2958   1.406   0.870   1.037 -0.5803 -0.4959 -0.5021
   57POPC   C2K 2959   1.332   0.924   1.159 -0.1908 -0.2007 -0.3968
   57POPC   C2L 2960   1.215   1.017   1.125 -0.2693  0.2362  0.9966
   57POPC   C2M 2961   1.266   1.151   1.072  0.2096 -0.2637  0.1745
   57POPC   C2N 2962   1.158   1.258   1.051  0.4688 -0.0969 -0.3507
   57POPC   C2O 2963   1.035   1.199   0.982  0.3275  0.0159 -0.1970
   57POPC   C2P 2964   0.928   1.303   0.948 -0.5023 -0.7048  0.1661
   58POPC   CN1 2965   2.489   3.096   0.298 -0.1014 -0.2854 -0.2323
   58POPC   CN2 2966   2.446   2.937   0.128 -0.3738  0.1548 -0.0273
   58POPC   CN3 2967   2.649   2.928   0.241 -0.0417  0.1380 -0.4527
   58POPC   NTM 2968   2.550   3.022   0.187 -0.0719  0.0962 -0.4700
   58POPC    CA 2969   2.608   3.106   0.081  0.0302 -0.0616 -0.5390
   58POPC    CB 2970   2.516   3.173   5.979 -0.0967 -0.0767 -0.4345
   58POPC    OA 2971   2.418   3.268   0.023 -0.0688 -0.4306  0.3995
   58POPC     P 2972   2.308   3.277   5.907  0.2966  0.1537  0.0924
   58POPC    OB 2973   2.265   3.139   5.872  0.1201  0.0794  0.5995
   58POPC    OC 2974   2.345   3.360   5.791 -0.1741  0.2629  0.0158
   58POPC    OD 2975   2.183   3.342   5.985  0.1283  0.2349 -0.2441
   58POPC    CC 2976   2.104   3.258   0.070  0.7061 -0.0747 -0.0067
   58POPC    CD 2977   2.109   3.285   0.220  0.4253  0.2273 -0.0483
   58POPC    OE 2978   2.047   3.190   0.308  0.0792  0.1081 -0.4207
   58POPC   C1A 2979   2.110   3.074   0.327  0.3595  0.3184 -0.0664
   58POPC    OF 2980   2.189   3.031   0.242  0.2567  0.2361 -0.1202
   58POPC   C1B 2981   2.063   2.986   0.435  0.2847  0.0896 -0.2851
   58POPC   C1C 2982   2.175   2.938   0.528  0.1546  0.5369  0.1029
   58POPC   C1D 2983   2.140   2.824   0.624  0.4796  0.2251 -0.1500
   58POPC   C1E 2984   2.039   2.872   0.729  0.0608 -0.6642 -0.1300
   58POPC   C1F 2985   2.049   2.798   0.862  0.0317 -0.4135  0.0113
   58POPC   C1G 2986   1.975   2.892   0.958  0.7552  0.1939 -0.0130
   58POPC   C1H 2987   1.972   2.844   1.103 -0.0877  0.1493 -0.0380
   58POPC   C1I 2988   1.933   2.950   1.207 -0.3834  0.0654 -0.0618
   58POPC   C1J 2989   1.959   2.956   1.337  0.2080  0.1422 -0.1781
   58POPC   C1K 2990   2.026   2.832   1.397 -0.7592 -0.3001  0.0173
   58POPC   C1L 2991   1.999   2.837   1.547  0.0834  0.1328  0.1637
   58POPC   C1M 2992   2.081   2.736   1.627  0.0739  0.0377  0.0529
   58POPC   C1N 2993   2.032   2.732   1.772 -0.3100 -0.2205 -0.0829
   58POPC   C1O 2994   2.052   2.871   1.832  0.5201 -0.4370  0.1569
   58POPC   C1P 2995   2.049   2.864   1.985 -0.4473 -0.6118  0.1331
   58POPC   C1Q 2996   2.119   2.755   2.066 -0.0094 -0.4709 -0.0554
   58POPC   C1R 2997   2.134   2.784   2.216  0.1167 -0.3511 -0.0905
   58POPC    CE 2998   2.055   3.428   0.225 -0.3273 -0.0535 -0.0712
   58POPC    OG 2999   2.072   3.502   0.346  0.8183 -0.2186 -0.1200
   58POPC   C2A 3000   2.194   3.515   0.397  0.6065 -0.9294  0.6012
   58POPC    OH 3001   2.289   3.505   0.319  0.1639  0.1406 -0.1009
   58POPC   C2B 3002   2.199   3.576   0.531 -0.0286 -0.2760  0.3354
   58POPC   C2C 3003   2.171   3.471   0.639  0.7655 -0.2176  0.6054
   58POPC   C2D 3004   2.208   3.520   0.780  0.5657  0.8785  0.2883
   58POPC   C2E 3005   2.108   3.451   0.873  0.7155  0.3693  0.0744
   58POPC   C2F 3006   2.122   3.477   1.023 -0.0376 -0.2545  0.2572
   58POPC   C2G 3007   1.994   3.439   1.099 -0.3638 -0.3010 -0.3060
   58POPC   C2H 3008   2.018   3.448   1.250 -0.5747 -0.2119 -0.2785
   58POPC   C2I 3009   2.114   3.338   1.297  0.2028  0.1570 -0.9946
   58POPC   C2J 3010   2.164   3.361   1.440 -0.2156 -0.4793 -0.7421
   58POPC   C2K 3011   2.252   3.252   1.502 -0.3439 -0.0732  0.1695
   58POPC   C2L 3012   2.281   3.279   1.649 -0.2731  0.1325  0.1182
   58POPC   C2M 3013   2.356   3.154   1.697  0.6326  0.7638  0.3587
   58POPC   C2N 3014   2.357   3.150   1.850 -0.5483  0.1931  0.3656
   58POPC   C2O 3015   2.443   3.031   1.893 -0.4858  0.1686  0.1745
   58POPC   C2P 3016   2.428   2.999   2.042 -0.5418  0.0456  0.1430
   59POPC   CN1 3017   2.208   2.134   0.126  0.1341 -0.0732  0.1633
   59POPC   CN2 3018   2.335   2.044   5.948  1.0488 -0.4573  0.8573
   59POPC   CN3 3019   2.439   2.111   0.154  0.4102  0.4228 -0.2766
   59POPC   NTM 3020   2.336   2.145   0.055  0.0526  0.4006  0.0860
   59POPC    CA 3021   2.344   2.281   5.999 -0.1474  0.4954  0.2872
   59POPC    CB 3022   2.467   2.370   0.007  0.6400 -0.4991 -0.4673
   59POPC    OA 3023   2.499   2.424   0.136 -0.4381 -0.1881 -0.3207
   59POPC     P 3024   2.398   2.536   0.191 -0.1680 -0.1696  0.1432
   59POPC    OB 3025   2.319   2.599   0.082 -0.2098  0.3024  0.4431
   59POPC    OC 3026   2.448   2.627   0.296 -0.3561  0.1300 -0.0234
   59POPC    OD 3027   2.302   2.433   0.269 -0.2869  0.1696  0.4506
   59POPC    CC 3028   2.262   2.475   0.399  0.5336 -0.4528  0.9198
   59POPC    CD 3029   2.195   2.358   0.471 -0.2689 -0.6666 -0.1576
   59POPC    OE 3030   2.109   2.395   0.579  0.3530  0.2606  0.0298
   59POPC   C1A 3031   2.027   2.310   0.640  0.8177 -0.3941 -0.2401
   59POPC    OF 3032   2.017   2.192   0.608 -0.2558 -0.1951 -0.6863
   59POPC   C1B 3033   1.950   2.382   0.745  0.3340 -0.2695 -0.6785
   59POPC   C1C 3034   1.874   2.293   0.843  0.3286  0.5217  0.0475
   59POPC   C1D 3035   1.966   2.211   0.933 -0.1644 -0.5677 -0.4184
   59POPC   C1E 3036   1.873   2.124   1.019 -0.3998  0.5988  0.5259
   59POPC   C1F 3037   1.954   2.047   1.124 -0.0962  0.1305 -0.0473
   59POPC   C1G 3038   1.845   1.980   1.207 -0.0936  0.1042 -0.0650
   59POPC   C1H 3039   1.897   1.873   1.303 -0.5165 -0.1122 -0.0775
   59POPC   C1I 3040   1.952   1.944   1.427 -0.3004 -0.0177 -0.2277
   59POPC   C1J 3041   1.966   1.867   1.535  0.4130 -0.0345 -0.3281
   59POPC   C1K 3042   1.934   1.718   1.535 -0.3435  0.1179  0.2208
   59POPC   C1L 3043   1.887   1.685   1.677 -0.2514 -0.4555  0.1222
   59POPC   C1M 3044   1.820   1.551   1.703 -0.0898 -0.4827  0.4047
   59POPC   C1N 3045   1.678   1.548   1.645  0.0621 -0.1574  0.0162
   59POPC   C1O 3046   1.597   1.423   1.679  0.1416 -0.1645  0.1810
   59POPC   C1P 3047   1.456   1.459   1.631  0.2550 -0.0216 -0.0474
   59POPC   C1Q 3048   1.433   1.421   1.484  0.0294  0.4277 -0.1289
   59POPC   C1R 3049   1.408   1.270   1.472 -0.2036  0.4667 -0.1526
   59POPC    CE 3050   2.303   2.252   0.494 -0.1594 -0.3721  0.6772
   59POPC    OG 3051   2.408   2.266   0.591  0.1282  0.2757  0.2815
   59POPC   C2A 3052   2.503   2.173   0.593  0.1719  0.3014 -0.4621
   59POPC    OH 3053   2.515   2.091   0.502 -0.4702  0.1039 -0.3725
   59POPC   C2B 3054   2.595   2.169   0.708 -0.1153 -0.4015 -0.2520
   59POPC   C2C 3055   2.518   2.124   0.832 -0.3125  0.0429 -0.2104
   59POPC   C2D 3056   2.600   2.176   0.950 -0.2370  0.7314 -0.5612
   59POPC   C2E 3057   2.543   2.106   1.074  0.2636 -0.0507 -0.7640
   59POPC   C2F 3058   2.634   2.146   1.190 -0.5533 -0.0764 -0.1058
   59POPC   C2G 3059   2.630   2.086   1.331 -0.0332 -0.3155 -0.1913
   59POPC   C2H 3060   2.490   2.082   1.391  0.0663  0.4588  0.1027
   59POPC   C2I 3061   2.484   2.006   1.523 -0.0088  0.1201 -0.0944
   59POPC   C2J 3062   2.357   2.028   1.605  0.1302 -0.0321  0.1641
   59POPC   C2K 3063   2.375   1.977   1.748 -0.3719 -0.1782  0.1763
   59POPC   C2L 3064   2.248   1.899   1.782 -0.6649  0.0671 -0.3493
   59POPC   C2M 3065   2.266   1.852   1.926 -0.4235 -0.0940 -0.4313
   59POPC   C2N 3066   2.131   1.800   1.975 -0.3843  0.3509  0.1699
   59POPC   C2O 3067   2.148   1.735   2.113  0.2147 -0.1444 -0.1324
   59POPC   C2P 3068   2.019   1.682   2.176  0.3138 -0.0124  0.1790
   60POPC   CN1 3069   1.802   4.715   0.533  0.3319 -0.2734 -0.2930
   60POPC   CN2 3070   2.020   4.784   0.569  0.1823  0.0558  0.2395
   60POPC   CN3 3071   1.852   4.947   0.500 -0.1058 -0.2357 -0.4232
   60POPC   NTM 3072   1.903   4.810   0.484  0.3273 -0.1253 -0.0161
   60POPC    CA 3073   1.940   4.775   0.346 -0.1436  0.0725 -0.1936
   60POPC    CB 3074   2.061   4.834   0.275  0.2513 -0.0829  0.3460
   60POPC    OA 3075   2.060   4.975   0.294 -0.4171  0.0469 -0.6205
   60POPC     P 3076   2.179   5.052   0.217  0.0898 -0.0247  0.0815
   60POPC    OB 3077   2.138   5.048   0.075 -0.0300 -0.8950  0.1335
   60POPC    OC 3078   2.317   5.012   0.251  0.1009  0.0525  0.1279
   60POPC    OD 3079   2.147   5.201   0.269  0.0551 -0.0480  0.1273
   60POPC    CC 3080   2.218   5.240   0.387  0.1310 -0.3574  0.1847
   60POPC    CD 3081   2.173   5.188   0.524  0.4463  0.6094  0.6585
   60POPC    OE 3082   2.087   5.277   0.596 -0.1719  0.3597  0.2394
   60POPC   C1A 3083   2.019   5.216   0.693 -0.4905 -0.4166 -0.4534
   60POPC    OF 3084   2.017   5.093   0.696  0.0184 -0.4192 -0.0292
   60POPC   C1B 3085   1.928   5.302   0.773  0.0016 -0.0343 -0.2986
   60POPC   C1C 3086   1.781   5.268   0.746  0.0150 -0.3846  0.0642
   60POPC   C1D 3087   1.699   5.347   0.848  0.1989  0.7070 -0.6239
   60POPC   C1E 3088   1.548   5.324   0.852  0.3705 -0.3206  0.1223
   60POPC   C1F 3089   1.501   5.381   0.986 -0.0993  0.1569 -0.2422
   60POPC   C1G 3090   1.360   5.339   1.028  0.0194  0.2515  0.2561
   60POPC   C1H 3091   1.361   5.191   1.067 -0.2647  0.2336  0.1941
   60POPC   C1I 3092   1.239   5.160   1.155 -0.1886 -0.2411  0.1337
   60POPC   C1J 3093   1.226   5.051   1.231 -0.1432 -0.1340  0.2974
   60POPC   C1K 3094   1.340   4.949   1.229 -0.3354 -0.3625  0.8607
   60POPC   C1L 3095   1.378   4.898   1.368  0.2360 -1.3430  0.3537
   60POPC   C1M 3096   1.518   4.838   1.356  0.5856 -0.4114 -0.3735
   60POPC   C1N 3097   1.616   4.955   1.355  0.3595 -0.2154  0.1055
   60POPC   C1O 3098   1.618   5.023   1.492 -0.2719 -0.1532  0.0838
   60POPC   C1P 3099   1.690   5.158   1.484  0.2879 -0.4839 -0.4510
   60POPC   C1Q 3100   1.613   5.255   1.395  0.1743 -0.3208 -0.1774
   60POPC   C1R 3101   1.696   5.379   1.359  0.0103 -0.0763  0.2871
   60POPC    CE 3102   2.302   5.133   0.583  0.3191 -0.3560  0.0569
   60POPC    OG 3103   2.401   5.227   0.626  0.0645  0.0689 -0.2825
   60POPC   C2A 3104   2.414   5.247   0.756 -0.1956  0.1275 -0.2648
   60POPC    OH 3105   2.356   5.171   0.833 -0.5398  0.6596  0.0056
   60POPC   C2B 3106   2.507   5.355   0.797  0.1316 -0.1658 -0.2275
   60POPC   C2C 3107   2.639   5.290   0.838  0.1429 -0.2616 -0.4172
   60POPC   C2D 3108   2.648   5.221   0.975  0.3469 -0.1382 -0.3676
   60POPC   C2E 3109   2.619   5.293   1.107 -0.2464 -0.8167 -0.1212
   60POPC   C2F 3110   2.615   5.204   1.231  0.0505 -0.1476  0.3726
   60POPC   C2G 3111   2.640   5.290   1.355  0.0433  0.2287  0.1152
   60POPC   C2H 3112   2.642   5.214   1.488 -0.0917 -0.0658 -0.0498
   60POPC   C2I 3113   2.657   5.311   1.605 -0.2071 -0.1382  0.0256
   60POPC   C2J 3114   2.671   5.233   1.736 -0.2723 -0.3868 -0.1151
   60POPC   C2K 3115   2.681   5.321   1.860 -0.5334 -0.3349 -0.1315
   60POPC   C2L 3116   2.680   5.220   1.975 -0.1734 -0.6045 -0.3643
   60POPC   C2M 3117   2.683   5.307   2.101  0.1070 -0.5917 -0.3793
   60POPC   C2N 3118   2.690   5.233   2.234 -0.5537  0.4219  0.2347
   60POPC   C2O 3119   2.554   5.178   2.279 -0.2669 -0.1089  0.4677
   60POPC   C2P 3120   2.580   5.117   2.416 -0.0107 -0.9620  0.0473
   61POPC   CN1 3121   4.712   6.064   0.441  0.1959 -0.0199 -0.9254
   61POPC   CN2 3122   4.656   5.847   0.373 -0.2781  0.4405 -0.0283
   61POPC   CN3 3123   4.829   5.880   0.533  0.3755  0.5303  0.4618
   61POPC   NTM 3124   4.770   5.933   0.409  0.2152 -0.2915  0.1800
   61POPC    CA 3125   4.868   5.937   0.299  0.3274 -0.3426  0.2775
   61POPC    CB 3126   5.007   6.001   0.309  0.2686 -0.2185  0.3047
   61POPC    OA 3127   5.014   6.142   0.331  0.0684 -0.1762  0.1119
   61POPC     P 3128   5.165   6.197   0.317  0.0698 -0.2085  0.0057
   61POPC    OB 3129   5.197   6.193   0.172  0.2023  0.1328  0.0240
   61POPC    OC 3130   5.243   6.110   0.408  0.0297  0.0664  0.3018
   61POPC    OD 3131   5.145   0.008   0.367  0.2054 -0.1117 -0.2281
   61POPC    CC 3132   5.204   0.039   0.494 -0.3319 -0.4512  0.1061
   61POPC    CD 3133   5.092   0.102   0.579 -0.2389 -0.1705  0.0237
   61POPC    OE 3134   5.120   0.219   0.655  0.2551 -0.1317 -0.2106
   61POPC   C1A 3135   5.158   0.334   0.600  0.0129  0.0959  0.0928
   61POPC    OF 3136   5.238   0.342   0.507 -0.1483  0.1676 -0.0390
   61POPC   C1B 3137   5.105   0.447   0.681 -0.3047 -0.0228  0.0509
   61POPC   C1C 3138   4.953   0.446   0.679 -0.3018 -0.0945 -0.3433
   61POPC   C1D 3139   4.876   0.552   0.758  0.5027  0.2549 -0.0215
   61POPC   C1E 3140   4.725   0.528   0.766  0.5439 -0.2764 -0.7368
   61POPC   C1F 3141   4.674   0.543   0.623 -0.1961 -0.2093 -0.4691
   61POPC   C1G 3142   4.522   0.553   0.602 -0.2562  0.0047  0.0621
   61POPC   C1H 3143   4.463   0.686   0.650 -0.2213 -0.1515  0.5504
   61POPC   C1I 3144   4.314   0.659   0.669 -0.3391 -0.2266 -0.4091
   61POPC   C1J 3145   4.247   0.716   0.769 -0.3985 -0.5701 -0.2489
   61POPC   C1K 3146   4.321   0.793   0.878 -0.3109 -0.2240 -0.5490
   61POPC   C1L 3147   4.218   0.862   0.968  0.0990 -0.5874  0.2053
   61POPC   C1M 3148   4.285   0.910   1.098  0.0935 -0.5691  0.2012
   61POPC   C1N 3149   4.173   0.949   1.195  0.2319  0.5723 -0.0834
   61POPC   C1O 3150   4.071   1.054   1.150  0.1261  0.3436 -0.3794
   61POPC   C1P 3151   3.935   1.017   1.210  0.3428  0.5233  0.2225
   61POPC   C1Q 3152   3.837   1.090   1.118  0.4237 -0.3764 -0.5921
   61POPC   C1R 3153   3.694   1.083   1.173  0.5528  0.0198 -0.1977
   61POPC    CE 3154   5.022   6.317   0.633 -0.4027 -0.0420  0.1073
   61POPC    OG 3155   5.106   6.240   0.719 -0.2163  0.3154  0.2454
   61POPC   C2A 3156   5.064   6.119   0.754  0.0003 -0.0866 -0.8461
   61POPC    OH 3157   4.952   6.081   0.720 -0.2908 -0.0426  0.0406
   61POPC   C2B 3158   5.161   6.053   0.845 -0.7298 -0.2079 -0.1383
   61POPC   C2C 3159   5.124   6.092   0.988 -0.2076  0.0374 -0.0646
   61POPC   C2D 3160   5.204   6.007   1.087  0.4153  0.9953  0.2647
   61POPC   C2E 3161   5.212   6.043   1.235 -0.0979  0.4650  0.4219
   61POPC   C2F 3162   5.299   5.944   1.313 -0.0763  0.0447 -0.1270
   61POPC   C2G 3163   5.320   6.007   1.451 -0.1196  0.7778 -0.4465
   61POPC   C2H 3164   5.416   6.125   1.436  0.9171 -0.0857 -0.6866
   61POPC   C2I 3165   5.407   6.236   1.540 -0.1389 -0.6513 -0.1541
   61POPC   C2J 3166   5.431   6.186   1.682  0.7124 -0.0320 -0.0702
   61POPC   C2K 3167   5.437   6.299   1.785 -0.2335  0.7962 -0.8997
   61POPC   C2L 3168   5.306   0.033   1.810 -0.3390  0.1972  0.4271
   61POPC   C2M 3169   5.323   0.161   1.893  0.3079  0.4379 -0.0708
   61POPC   C2N 3170   5.189   0.234   1.883  0.0808  0.0697  0.2574
   61POPC   C2O 3171   5.189   0.349   1.984 -0.1700 -0.1967  0.5636
   61POPC   C2P 3172   5.049   0.409   1.979 -0.3548 -0.6182  0.6061
   62POPC   CN1 3173   4.009   2.476   5.933  0.0090 -0.1457  0.4537
   62POPC   CN2 3174   4.171   2.390   0.074  0.1431  0.7636  0.0151
   62POPC   CN3 3175   4.229   2.499   5.864 -0.5030  0.3151  0.1929
   62POPC   NTM 3176   4.138   2.405   5.932 -0.0707 -0.2842 -0.0500
   62POPC    CA 3177   4.142   2.273   5.866 -0.1409 -0.1951 -0.2329
   62POPC    CB 3178   4.051   2.162   5.918 -0.3361 -0.2311 -0.6460
   62POPC    OA 3179   3.915   2.202   5.900 -0.3771 -0.0898 -0.0289
   62POPC     P 3180   3.804   2.106   5.967 -0.4773 -0.2275 -0.3928
   62POPC    OB 3181   3.836   1.962   5.977 -0.2426 -0.1608 -0.1739
   62POPC    OC 3182   3.673   2.146   5.910 -0.5859 -0.2379 -0.1509
   62POPC    OD 3183   3.816   2.184   0.107  0.1236 -0.5921 -0.2397
   62POPC    CC 3184   3.851   2.093   0.212 -0.1812  0.0657  0.4400
   62POPC    CD 3185   3.912   2.167   0.331  0.2755  0.2203  0.1149
   62POPC    OE 3186   4.005   2.086   0.404 -0.0138 -0.1772  0.0396
   62POPC   C1A 3187   4.134   2.100   0.377 -0.1339  0.2894 -0.3042
   62POPC    OF 3188   4.177   2.186   0.300 -0.7236  0.6901 -0.1965
   62POPC   C1B 3189   4.213   1.986   0.430 -0.6181 -0.1749 -0.5686
   62POPC   C1C 3190   4.140   1.875   0.505  0.1274  0.0119  0.4605
   62POPC   C1D 3191   4.251   1.780   0.551  0.1064 -0.2428 -0.0014
   62POPC   C1E 3192   4.187   1.703   0.667 -0.2602 -0.2314 -0.1959
   62POPC   C1F 3193   4.300   1.621   0.730 -0.3159 -0.0494  0.1411
   62POPC   C1G 3194   4.259   1.561   0.865 -0.5300  0.0474  0.1197
   62POPC   C1H 3195   4.349   1.448   0.913  0.0184  0.2895 -0.3213
   62POPC   C1I 3196   4.498   1.481   0.910  0.0301  0.2989  0.2859
   62POPC   C1J 3197   4.574   1.435   1.010  0.7512 -0.0389 -0.4016
   62POPC   C1K 3198   4.527   1.363   1.137  0.1814  0.6036 -0.2362
   62POPC   C1L 3199   4.530   1.432   1.273 -0.0634 -0.0275  0.0941
   62POPC   C1M 3200   4.631   1.360   1.362  0.0472  0.1346  0.1002
   62POPC   C1N 3201   4.599   1.403   1.505 -0.1951 -0.3217  0.1850
   62POPC   C1O 3202   4.681   1.312   1.596 -0.3022 -0.4149  0.1891
   62POPC   C1P 3203   4.672   1.346   1.745 -0.3149 -0.6512  0.2437
   62POPC   C1Q 3204   4.794   1.290   1.818  0.0831  0.1243  0.1939
   62POPC   C1R 3205   4.785   1.146   1.869  0.2438  0.0833  0.1068
   62POPC    CE 3206   3.799   2.244   0.400 -0.2248 -0.0593 -0.3882
   62POPC    OG 3207   3.820   2.341   0.503 -0.2296 -0.3563 -0.1044
   62POPC   C2A 3208   3.709   2.403   0.544 -0.0446 -0.0301 -0.0919
   62POPC    OH 3209   3.608   2.387   0.476 -0.3111  0.7395  0.1212
   62POPC   C2B 3210   3.721   2.496   0.658  0.3772 -0.2947  0.0826
   62POPC   C2C 3211   3.691   2.436   0.795  0.2966  0.0842  0.2319
   62POPC   C2D 3212   3.775   2.315   0.836  0.1476 -0.0314  0.1989
   62POPC   C2E 3213   3.717   2.254   0.963  0.0399  0.3585  0.3382
   62POPC   C2F 3214   3.795   2.131   1.011 -0.2704  0.2600  0.5917
   62POPC   C2G 3215   3.763   2.097   1.157  0.1596 -0.3298  0.5513
   62POPC   C2H 3216   3.846   1.980   1.210  0.4028 -0.1726  0.5176
   62POPC   C2I 3217   3.997   2.004   1.224  0.3925  0.5434 -0.4469
   62POPC   C2J 3218   4.082   1.879   1.243  0.0450  0.3471 -0.1565
   62POPC   C2K 3219   4.233   1.904   1.249  0.0584  0.1608  0.3469
   62POPC   C2L 3220   4.315   1.796   1.320  0.7139  0.5054  0.1274
   62POPC   C2M 3221   4.272   1.805   1.467 -0.3163  0.6691 -0.1732
   62POPC   C2N 3222   4.370   1.717   1.544 -0.9850 -0.0377 -0.1180
   62POPC   C2O 3223   4.362   1.749   1.694 -0.6996 -0.4498 -0.0116
   62POPC   C2P 3224   4.365   1.631   1.790 -0.8221 -0.4719 -0.0355
   63POPC   CN1 3225   1.420   3.148   0.524 -0.2574 -0.4888 -0.0446
   63POPC   CN2 3226   1.253   3.153   0.351  0.0105 -0.3828 -0.4014
   63POPC   CN3 3227   1.342   2.952   0.420  0.1578 -0.5406  0.0630
   63POPC   NTM 3228   1.379   3.092   0.394 -0.1454 -0.4852 -0.0818
   63POPC    CA 3229   1.476   3.092   0.284 -0.3518 -0.3197 -0.2628
   63POPC    CB 3230   1.522   3.210   0.197 -0.0684  0.0865  0.4323
   63POPC    OA 3231   1.520   3.326   0.281 -0.4170  0.4400 -0.0568
   63POPC     P 3232   1.615   3.430   0.203 -0.1904  0.3741  0.1303
   63POPC    OB 3233   1.524   3.490   0.103 -0.2843 -0.2442 -0.1577
   63POPC    OC 3234   1.745   3.366   0.171 -0.9394 -1.0263 -0.1907
   63POPC    OD 3235   1.639   3.536   0.322  0.5304  0.1202  0.2212
   63POPC    CC 3236   1.707   3.464   0.425  0.6076  0.1020  0.1579
   63POPC    CD 3237   1.727   3.545   0.553  0.1126  0.1136  0.2336
   63POPC    OE 3238   1.615   3.608   0.615 -0.1954 -0.3748  0.1713
   63POPC   C1A 3239   1.522   3.534   0.675 -0.0942 -0.2248  0.5132
   63POPC    OF 3240   1.538   3.412   0.679  0.7793 -0.1578 -0.3714
   63POPC   C1B 3241   1.413   3.608   0.742 -0.0285  0.3669 -0.0203
   63POPC   C1C 3242   1.464   3.700   0.853 -0.0205 -0.5048  0.7064
   63POPC   C1D 3243   1.492   3.617   0.979  0.6003 -0.2520  0.7351
   63POPC   C1E 3244   1.417   3.677   1.098  0.1543  0.2075  0.2283
   63POPC   C1F 3245   1.486   3.650   1.232  0.3772  0.0681  0.0868
   63POPC   C1G 3246   1.497   3.504   1.276  0.2904  0.0978  0.2080
   63POPC   C1H 3247   1.594   3.483   1.392  0.5965  0.1066 -0.0446
   63POPC   C1I 3248   1.619   3.334   1.416 -0.5535 -0.0792  0.0513
   63POPC   C1J 3249   1.691   3.298   1.522 -0.2294  0.2431 -0.0564
   63POPC   C1K 3250   1.765   3.396   1.613 -0.1953  0.1121  0.0567
   63POPC   C1L 3251   1.835   3.308   1.717 -0.1208  0.2304  0.1067
   63POPC   C1M 3252   1.902   3.399   1.820 -0.4487  0.3540  0.2108
   63POPC   C1N 3253   1.987   3.316   1.917  0.2282  0.6622 -0.1164
   63POPC   C1O 3254   2.036   3.416   2.022 -0.0674  0.3443  0.3270
   63POPC   C1P 3255   2.153   3.350   2.095 -0.0036  0.1545  0.0552
   63POPC   C1Q 3256   2.105   3.252   2.202 -0.0912  0.1547  0.0168
   63POPC   C1R 3257   2.053   3.332   2.321 -0.2414  0.2953 -0.1438
   63POPC    CE 3258   1.833   3.650   0.516 -1.0334  1.0333 -0.4871
   63POPC    OG 3259   1.906   3.701   0.628 -0.6088  0.0036 -0.2869
   63POPC   C2A 3260   1.860   3.818   0.672 -0.2410 -0.0266  0.1815
   63POPC    OH 3261   1.797   3.898   0.604  0.5952  0.7320  0.2690
   63POPC   C2B 3262   1.915   3.849   0.806  0.1812 -0.7163  0.1741
   63POPC   C2C 3263   2.043   3.933   0.805  0.0047 -0.4491  0.1268
   63POPC   C2D 3264   2.115   3.959   0.938  0.0434  0.0399  0.0124
   63POPC   C2E 3265   2.153   3.830   1.011 -0.3236 -0.2299 -0.2685
   63POPC   C2F 3266   2.206   3.876   1.147  0.8738 -0.4544 -0.6471
   63POPC   C2G 3267   2.218   3.772   1.258 -0.0686 -0.0141 -0.1110
   63POPC   C2H 3268   2.257   3.840   1.389  0.1992 -0.1117 -0.1380
   63POPC   C2I 3269   2.282   3.736   1.499  0.0804  0.1266  0.1149
   63POPC   C2J 3270   2.339   3.782   1.633  0.5175 -0.1858  0.0391
   63POPC   C2K 3271   2.490   3.808   1.636  0.5096 -0.1045 -0.2724
   63POPC   C2L 3272   2.519   3.871   1.772 -0.1882 -0.5845  0.1096
   63POPC   C2M 3273   2.661   3.851   1.825 -0.3049 -1.1216  0.2215
   63POPC   C2N 3274   2.685   3.934   1.951 -0.1132 -0.5358 -0.1987
   63POPC   C2O 3275   2.598   3.885   2.066 -0.5211 -0.2815 -0.3941
   63POPC   C2P 3276   2.600   3.986   2.182 -0.1291 -0.6088 -0.1086
   64POPC   CN1 3277   5.160   5.337   0.233  0.2460 -0.1475  0.2261
   64POPC   CN2 3278   5.135   5.156   0.376 -0.3913 -0.0427 -0.0906
   64POPC   CN3 3279   5.272   5.338   0.445 -0.1781  0.4267 -0.0054
   64POPC   NTM 3280   5.234   5.255   0.330 -0.0127 -0.1969  0.3841
   64POPC    CA 3281   5.354   5.189   0.276 -0.7873 -1.1130 -0.2746
   64POPC    CB 3282   5.459   5.110   0.355  0.2503 -0.1719 -0.6715
   64POPC    OA 3283   5.407   4.992   0.418  0.3940 -0.0732 -0.3656
   64POPC     P 3284   5.518   4.893   0.478 -0.0977 -0.0096  0.6700
   64POPC    OB 3285   5.649   4.924   0.416 -0.4021 -0.3783 -0.1753
   64POPC    OC 3286   5.484   4.750   0.499 -0.1764 -0.0470  0.3039
   64POPC    OD 3287   5.525   4.965   0.622 -0.0971  0.5484  0.3928
   64POPC    CC 3288   5.427   4.920   0.716  0.4199  0.0888  0.7190
   64POPC    CD 3289   5.309   5.016   0.737  0.1491 -0.0046 -0.3375
   64POPC    OE 3290   5.331   5.147   0.790 -0.2015  0.1244 -0.5088
   64POPC   C1A 3291   5.233   5.237   0.785 -0.2669  0.0739 -0.1334
   64POPC    OF 3292   5.130   5.213   0.722 -0.2388  0.1892 -0.2240
   64POPC   C1B 3293   5.274   5.365   0.847 -1.1175  0.0962  0.4113
   64POPC   C1C 3294   5.237   5.489   0.766  0.2174  0.3829  0.2076
   64POPC   C1D 3295   5.169   5.596   0.851 -0.2885  0.3567 -0.1556
   64POPC   C1E 3296   5.055   5.563   0.948  0.1253  0.2685  0.3081
   64POPC   C1F 3297   5.002   5.696   1.004 -0.3469  0.2112  0.0068
   64POPC   C1G 3298   4.874   5.685   1.086 -0.2317  0.6150  0.2412
   64POPC   C1H 3299   4.844   5.827   1.134 -0.0343  0.7364  0.0053
   64POPC   C1I 3300   4.709   5.831   1.206  0.0752  0.6692  0.2156
   64POPC   C1J 3301   4.665   5.949   1.249 -0.4418  0.3469  0.5785
   64POPC   C1K 3302   4.758   6.071   1.247  0.3292 -0.2459 -0.3147
   64POPC   C1L 3303   4.831   6.084   1.381  0.2379 -0.1467 -0.2746
   64POPC   C1M 3304   4.909   6.215   1.383 -0.1398  0.0745  0.1856
   64POPC   C1N 3305   4.977   6.232   1.518 -0.2164  0.4910  0.1732
   64POPC   C1O 3306   4.893   6.296   1.629 -0.1537  0.2384  0.3678
   64POPC   C1P 3307   4.895   0.108   1.612  0.3228  0.1940  0.0040
   64POPC   C1Q 3308   4.779   0.176   1.684 -0.1109 -0.3918 -0.1303
   64POPC   C1R 3309   4.805   0.327   1.682 -0.5069 -0.3080  0.5681
   64POPC    CE 3310   5.207   4.926   0.807  0.1741  0.0279 -0.2603
   64POPC    OG 3311   5.245   4.898   0.942 -0.6893 -0.2800 -0.0761
   64POPC   C2A 3312   5.174   4.974   1.026 -0.2059 -0.3698  0.4190
   64POPC    OH 3313   5.055   4.995   1.007 -0.0673  0.2847  0.2754
   64POPC   C2B 3314   5.235   4.986   1.160 -0.1418 -0.0560  0.3629
   64POPC   C2C 3315   5.135   5.030   1.268 -0.5179 -0.3444  0.1346
   64POPC   C2D 3316   5.219   5.025   1.395 -0.0445 -0.3238 -0.1740
   64POPC   C2E 3317   5.139   5.050   1.523 -0.0751  0.2283 -0.2985
   64POPC   C2F 3318   5.228   5.081   1.643  0.1807 -0.3394 -0.3405
   64POPC   C2G 3319   5.298   4.956   1.698  0.3546  0.0164  0.2529
   64POPC   C2H 3320   5.398   4.987   1.809 -0.6547  0.4569  1.0642
   64POPC   C2I 3321   5.472   4.854   1.826  0.4382  0.8854 -0.1875
   64POPC   C2J 3322   5.481   4.807   1.971 -0.0572 -0.4406 -0.5805
   64POPC   C2K 3323   5.535   4.665   1.989  0.8823 -0.0238 -0.0780
   64POPC   C2L 3324   5.534   4.615   2.134 -0.1718  0.0670 -0.0504
   64POPC   C2M 3325   5.639   4.508   2.161  0.2898  0.2709 -0.9786
   64POPC   C2N 3326   5.782   4.556   2.184  0.2489 -0.0131 -0.0799
   64POPC   C2O 3327   5.878   4.445   2.228  0.0412 -0.1023  0.1473
   64POPC   C2P 3328   6.018   4.507   2.222 -0.1352  0.2889  0.0044
   65POPC   CN1 3329   4.891   4.584   0.011 -0.2934 -0.0601  0.1870
   65POPC   CN2 3330   5.020   4.533   5.829 -0.1709 -0.1912  0.3614
   65POPC   CN3 3331   5.062   4.421   0.030 -0.1725 -0.2741 -0.6284
   65POPC   NTM 3332   5.030   4.552   5.974 -0.2137  0.1297  0.3219
   65POPC    CA 3333   5.120   4.662   0.012  0.0862  0.4173 -1.1403
   65POPC    CB 3334   5.269   4.630   0.002  0.2699  0.9725 -0.3115
   65POPC    OA 3335   5.332   4.583   5.883  0.1002 -0.3497  0.0958
   65POPC     P 3336   5.486   4.536   5.899  0.2357  0.1147  0.1822
   65POPC    OB 3337   5.489   4.407   5.971 -0.1163 -0.1630 -0.2978
   65POPC    OC 3338   5.543   4.662   5.952  0.0825  0.4287 -0.3801
   65POPC    OD 3339   5.527   4.520   5.744 -0.0996  0.0137  0.1030
   65POPC    CC 3340   5.479   4.392   5.699  0.2025 -0.1478  0.2350
   65POPC    CD 3341   5.496   4.372   5.548 -0.2060 -0.0661  0.1761
   65POPC    OE 3342   5.626   4.318   5.521 -0.0568  0.1878  0.3788
   65POPC   C1A 3343   5.633   4.186   5.504 -0.4000  0.2635 -0.3647
   65POPC    OF 3344   5.554   4.117   5.568 -0.4170  0.4332 -0.2030
   65POPC   C1B 3345   5.737   4.140   5.409  0.0478 -0.1123  0.3020
   65POPC   C1C 3346   5.677   4.169   5.271  0.1701 -0.1991  0.2303
   65POPC   C1D 3347   5.566   4.072   5.230 -0.1268  0.1334  0.2460
   65POPC   C1E 3348   5.512   4.093   5.088  0.1202  0.0466  0.1384
   65POPC   C1F 3349   5.601   4.063   4.967 -0.3456  0.0943 -0.2203
   65POPC   C1G 3350   5.543   4.092   4.829 -0.6040  0.6710  0.0042
   65POPC   C1H 3351   5.517   4.239   4.794  0.5164  0.8740  0.0040
   65POPC   C1I 3352   5.645   4.323   4.789  0.7121  0.6255  0.7083
   65POPC   C1J 3353   5.654   4.408   4.687 -0.5389  0.7520  0.6865
   65POPC   C1K 3354   5.546   4.398   4.579  0.2155 -0.1617 -0.0070
   65POPC   C1L 3355   5.578   4.437   4.435  0.0908 -0.5869 -0.1512
   65POPC   C1M 3356   5.448   4.475   4.364  0.2913 -0.0216 -0.2170
   65POPC   C1N 3357   5.456   4.570   4.244  0.0534 -0.0931 -0.2901
   65POPC   C1O 3358   5.526   4.497   4.130  0.1937 -0.4649  0.0345
   65POPC   C1P 3359   5.502   4.565   3.996  0.2328  0.1762  0.3507
   65POPC   C1Q 3360   5.355   4.559   3.953  0.3181 -0.0839  0.0915
   65POPC   C1R 3361   5.340   4.657   3.836  0.2445 -0.4591 -0.2137
   65POPC    CE 3362   5.446   4.490   5.464  0.2644  0.0729  0.0845
   65POPC    OG 3363   5.459   4.482   5.322 -0.3260  0.2935  0.0149
   65POPC   C2A 3364   5.382   4.566   5.253  0.3405  0.8548 -0.0587
   65POPC    OH 3365   5.327   4.657   5.314 -0.0018  0.3967  0.3301
   65POPC   C2B 3366   5.367   4.525   5.112 -0.2295  0.3029  0.1549
   65POPC   C2C 3367   5.250   4.597   5.045 -0.4377  0.3526  0.5723
   65POPC   C2D 3368   5.230   4.521   4.914 -0.2121  0.8027  0.2754
   65POPC   C2E 3369   5.130   4.591   4.821 -0.3642  0.4457  0.1690
   65POPC   C2F 3370   5.141   4.548   4.675  0.7344 -0.2178  0.4311
   65POPC   C2G 3371   5.078   4.409   4.658 -0.0135  0.1403  0.1870
   65POPC   C2H 3372   5.100   4.354   4.517  0.1481  0.1773  0.1971
   65POPC   C2I 3373   5.024   4.444   4.419 -0.6309 -0.6046  0.0760
   65POPC   C2J 3374   5.055   4.427   4.270 -0.5749  0.1446  0.0006
   65POPC   C2K 3375   5.010   4.299   4.200  0.1611 -0.1224  0.0097
   65POPC   C2L 3376   5.061   4.287   4.056 -0.4434  0.0841 -0.2219
   65POPC   C2M 3377   4.984   4.166   4.004 -0.1171 -0.2444  0.0511
   65POPC   C2N 3378   4.831   4.173   3.997 -0.0774  0.3321 -0.2815
   65POPC   C2O 3379   4.769   4.034   3.985 -0.0103  0.2889 -0.1196
   65POPC   C2P 3380   4.797   3.950   4.110 -0.1306 -0.2977 -0.4819
   66POPC   CN1 3381   0.581   4.959   5.850 -0.0339  0.4193  0.6392
   66POPC   CN2 3382   0.607   4.776   5.992  0.1677 -0.2476  0.3409
   66POPC   CN3 3383   0.481   4.968   0.057  0.2882 -0.2484  0.0908
   66POPC   NTM 3384   0.604   4.923   5.991  0.4556 -0.2399  0.3911
   66POPC    CA 3385   0.723   4.996   0.035  0.4284  0.0774 -0.0575
   66POPC    CB 3386   0.859   4.977   5.967  0.5844 -0.0313  0.2856
   66POPC    OA 3387   0.893   4.839   5.952 -0.5099 -0.3352  0.4593
   66POPC     P 3388   1.019   4.818   5.854 -0.5420 -0.0056  0.3472
   66POPC    OB 3389   1.058   4.680   5.890 -0.0421  0.1334  0.3538
   66POPC    OC 3390   1.116   4.928   5.875 -0.3046 -0.0408 -0.5097
   66POPC    OD 3391   0.943   4.840   5.714 -0.1277  0.1098  0.1365
   66POPC    CC 3392   0.872   4.721   5.675 -0.7807  0.5619 -0.0784
   66POPC    CD 3393   0.844   4.725   5.525  0.3011  0.3670 -0.2917
   66POPC    OE 3394   0.748   4.626   5.488  0.3466  0.2219 -0.0224
   66POPC   C1A 3395   0.620   4.639   5.523  0.3192 -0.2155  0.0420
   66POPC    OF 3396   0.580   4.734   5.590  0.3464 -0.4765  0.4318
   66POPC   C1B 3397   0.532   4.537   5.463 -0.4456  0.2749  0.3153
   66POPC   C1C 3398   0.443   4.583   5.348 -0.1454 -0.2157 -0.1155
   66POPC   C1D 3399   0.525   4.636   5.230 -0.5290  0.0076 -0.2844
   66POPC   C1E 3400   0.440   4.700   5.120 -0.6169  0.5367  0.0869
   66POPC   C1F 3401   0.516   4.782   5.015  0.0370 -0.0310  0.1095
   66POPC   C1G 3402   0.415   4.835   4.913  0.3191  0.2931 -0.0025
   66POPC   C1H 3403   0.490   4.912   4.804 -0.3125  0.3106 -0.4342
   66POPC   C1I 3404   0.479   5.059   4.844 -0.3635  0.1560  0.1415
   66POPC   C1J 3405   0.462   5.156   4.754 -0.0605 -0.0370 -0.1241
   66POPC   C1K 3406   0.455   5.125   4.604  0.9450 -0.1625 -0.1507
   66POPC   C1L 3407   0.361   5.220   4.529  0.0638 -0.6393  0.3261
   66POPC   C1M 3408   0.363   5.192   4.379 -0.7798 -0.7513  0.3330
   66POPC   C1N 3409   0.301   5.310   4.303  0.2669 -0.5240 -0.1820
   66POPC   C1O 3410   0.151   5.294   4.280  0.0281  0.8283  0.3439
   66POPC   C1P 3411   0.068   5.364   4.388 -0.4571 -0.3682  0.7543
   66POPC   C1Q 3412   0.088   5.515   4.389 -0.1136 -0.3986 -0.2129
   66POPC   C1R 3413   0.004   5.596   4.290 -0.1868 -0.1487  0.0498
   66POPC    CE 3414   0.984   4.718   5.463  0.4366 -0.0182  0.0550
   66POPC    OG 3415   1.056   4.596   5.482 -0.0224 -0.3439 -0.2666
   66POPC   C2A 3416   1.186   4.615   5.503 -0.0064 -0.3980 -0.3174
   66POPC    OH 3417   1.239   4.723   5.525 -0.2933 -0.4520  0.6714
   66POPC   C2B 3418   1.258   4.485   5.502  0.2719 -0.2462  0.0602
   66POPC   C2C 3419   1.387   4.499   5.420 -0.0612  1.0055 -0.2703
   66POPC   C2D 3420   1.378   4.406   5.300  0.3965 -0.5310  0.8553
   66POPC   C2E 3421   1.514   4.377   5.237  0.0040 -0.5510 -0.0021
   66POPC   C2F 3422   1.514   4.329   5.091  0.4123 -0.2851 -0.0903
   66POPC   C2G 3423   1.454   4.422   4.986  0.0079 -0.0326  0.3585
   66POPC   C2H 3424   1.455   4.355   4.849  0.3770 -0.0449  0.3664
   66POPC   C2I 3425   1.327   4.273   4.830  0.5892 -0.2341 -0.2834
   66POPC   C2J 3426   1.301   4.226   4.686 -0.0163 -0.3324 -0.1437
   66POPC   C2K 3427   1.226   4.093   4.689 -0.5641 -0.0240  0.2029
   66POPC   C2L 3428   1.195   4.053   4.544  0.3900 -0.5576  0.1318
   66POPC   C2M 3429   1.076   3.957   4.544 -0.2925  0.2694  0.2916
   66POPC   C2N 3430   1.030   3.900   4.409  0.0084 -0.2803  0.4181
   66POPC   C2O 3431   0.987   4.010   4.312 -0.5204 -0.4472  0.4597
   66POPC   C2P 3432   0.980   3.950   4.172 -0.2070 -0.2744  0.3681
   67POPC   CN1 3433   4.121   5.752   5.879  0.2428  0.1457 -0.2946
   67POPC   CN2 3434   4.049   5.705   5.653  0.3358  0.1836  0.2088
   67POPC   CN3 3435   3.903   5.815   5.825 -0.4010 -0.6257  0.3579
   67POPC   NTM 3436   4.007   5.716   5.794  0.0057 -0.1351  0.1375
   67POPC    CA 3437   3.967   5.579   5.830 -0.6111  0.1072  0.3898
   67POPC    CB 3438   3.832   5.523   5.787 -0.2486 -0.3848 -0.1237
   67POPC    OA 3439   3.714   5.589   5.835 -0.0613 -0.0173 -0.1694
   67POPC     P 3440   3.585   5.494   5.847  0.0277 -0.1077  0.0914
   67POPC    OB 3441   3.492   5.552   5.946  0.2859 -0.2877  0.4407
   67POPC    OC 3442   3.622   5.351   5.857 -0.6664 -0.2556  0.6163
   67POPC    OD 3443   3.525   5.521   5.700  0.1565  0.3547  0.1210
   67POPC    CC 3444   3.465   5.651   5.697 -0.2402  0.1678 -0.2621
   67POPC    CD 3445   3.511   5.754   5.593  0.1681 -0.1411 -0.3900
   67POPC    OE 3446   3.448   5.880   5.616  0.3646 -0.1556  0.2280
   67POPC   C1A 3447   3.501   5.954   5.714  0.4646  0.2597 -0.1382
   67POPC    OF 3448   3.610   5.919   5.758  0.3535 -0.0444 -0.1018
   67POPC   C1B 3449   3.423   6.075   5.746  0.1168 -0.0546  0.2208
   67POPC   C1C 3450   3.448   6.115   5.891  0.0353  0.7430  0.0206
   67POPC   C1D 3451   3.346   6.223   5.928 -0.3166  0.3576  0.1846
   67POPC   C1E 3452   3.389   6.271   0.066 -0.4505 -0.2297  0.4337
   67POPC   C1F 3453   3.523   0.004   0.071 -0.3549 -0.3843  0.1051
   67POPC   C1G 3454   3.564   0.002   0.218 -0.0917 -0.3227  0.0335
   67POPC   C1H 3455   3.685   0.095   0.234 -0.0283 -0.3991 -0.0009
   67POPC   C1I 3456   3.779   0.044   0.343 -0.0748 -0.5044 -0.0103
   67POPC   C1J 3457   3.877   6.298   0.317 -0.2824 -0.8330  0.2848
   67POPC   C1K 3458   3.919   6.217   0.194  0.4203  0.0440 -0.0626
   67POPC   C1L 3459   4.013   6.308   0.115 -0.3438  0.8699 -0.0385
   67POPC   C1M 3460   4.040   6.258   5.973 -0.3069 -0.0873  0.2972
   67POPC   C1N 3461   3.913   6.267   5.888 -0.2332  0.3473  0.2296
   67POPC   C1O 3462   3.947   6.221   5.746 -0.6860  0.0281  0.2223
   67POPC   C1P 3463   3.812   6.208   5.673 -0.4501  0.0434 -0.2219
   67POPC   C1Q 3464   3.838   6.134   5.542 -0.7309 -0.5625  0.0617
   67POPC   C1R 3465   3.716   6.144   5.451 -0.7534  0.6706  0.2208
   67POPC    CE 3466   3.514   5.702   5.449  0.2501  0.0183 -0.4464
   67POPC    OG 3467   3.555   5.568   5.417  0.2985 -0.2089  0.5367
   67POPC   C2A 3468   3.668   5.506   5.448  0.5074 -0.0712  0.0601
   67POPC    OH 3469   3.767   5.568   5.485  0.4616 -0.1181  0.2619
   67POPC   C2B 3470   3.676   5.362   5.413 -0.0530 -0.1041  0.0519
   67POPC   C2C 3471   3.811   5.294   5.435 -0.1389 -0.2540  0.1134
   67POPC   C2D 3472   3.825   5.168   5.349 -0.0708  0.2078 -0.5564
   67POPC   C2E 3473   3.852   5.223   5.208  0.3437  0.6233 -0.3152
   67POPC   C2F 3474   3.848   5.107   5.109 -0.6222  0.1073  0.3073
   67POPC   C2G 3475   3.883   5.139   4.963  0.2001 -0.1112  0.4508
   67POPC   C2H 3476   3.769   5.219   4.900  0.1862 -0.1153  0.4701
   67POPC   C2I 3477   3.815   5.338   4.815  0.0762 -0.3387  0.0978
   67POPC   C2J 3478   3.700   5.384   4.726  0.2521  0.0929  0.0931
   67POPC   C2K 3479   3.594   5.447   4.817 -0.2115 -0.4223 -0.0861
   67POPC   C2L 3480   3.508   5.531   4.721 -0.2433 -0.1543  0.1745
   67POPC   C2M 3481   3.392   5.600   4.793 -0.6928 -0.6294 -0.0938
   67POPC   C2N 3482   3.310   5.686   4.697 -0.1544  0.1545  0.1470
   67POPC   C2O 3483   3.179   5.708   4.772  0.0005 -0.2443  0.5321
   67POPC   C2P 3484   3.084   5.786   4.681  0.4604  0.4781  0.6653
   68POPC   CN1 3485   1.835   6.323   5.635  0.2413  0.2945 -0.6889
   68POPC   CN2 3486   1.758   0.220   5.638  0.2136  0.4671 -0.2721
   68POPC   CN3 3487   1.911   0.133   5.794 -0.1116 -0.3623  0.4113
   68POPC   NTM 3488   1.792   0.099   5.715  0.3683  0.2907 -0.6134
   68POPC    CA 3489   1.674   0.069   5.798  0.3973  0.2638 -0.5824
   68POPC    CB 3490   1.553   0.004   5.732 -0.0597 -0.0497  0.5403
   68POPC    OA 3491   1.574   6.216   5.672 -0.3673  0.1245  0.0549
   68POPC     P 3492   1.473   6.194   5.549 -0.1623 -0.2967 -0.0399
   68POPC    OB 3493   1.349   6.201   5.628  0.2265  0.3464  0.5186
   68POPC    OC 3494   1.523   6.075   5.477 -0.5674 -0.2484 -0.4083
   68POPC    OD 3495   1.492   6.327   5.460  0.1919 -0.3968 -0.1158
   68POPC    CC 3496   1.560   6.303   5.336  0.2065  0.0238 -0.1927
   68POPC    CD 3497   1.557   0.087   5.247 -0.1547 -0.0231 -0.2468
   68POPC    OE 3498   1.572   0.057   5.108 -0.0709  0.2439 -0.2958
   68POPC   C1A 3499   1.471   6.339   5.044 -0.4892  0.5821  0.0498
   68POPC    OF 3500   1.361   6.331   5.099 -0.4252 -0.2030  0.0812
   68POPC   C1B 3501   1.502   6.301   4.904 -0.3998  0.2958  0.1467
   68POPC   C1C 3502   1.382   6.308   4.809 -0.0321  0.8285 -0.2805
   68POPC   C1D 3503   1.420   6.267   4.666  0.7267  0.1673  0.1024
   68POPC   C1E 3504   1.299   6.308   4.582  0.3155  0.2230  0.7067
   68POPC   C1F 3505   1.315   6.243   4.444 -0.4458  0.5564  0.4576
   68POPC   C1G 3506   1.212   6.284   4.339  0.0378  0.3337 -0.1076
   68POPC   C1H 3507   1.246   6.234   4.198 -0.5998  0.2276 -0.2306
   68POPC   C1I 3508   1.376   6.297   4.145  0.0660 -0.9227  0.0054
   68POPC   C1J 3509   1.476   6.228   4.092  0.7083 -0.0061  0.0158
   68POPC   C1K 3510   1.491   6.081   4.052 -0.2605 -0.1673  0.2413
   68POPC   C1L 3511   1.477   6.079   3.900  0.3081  0.5629  0.1737
   68POPC   C1M 3512   1.494   5.932   3.860 -0.3017  0.4984  0.1386
   68POPC   C1N 3513   1.381   5.844   3.914  0.0724  0.3153  0.6359
   68POPC   C1O 3514   1.422   5.696   3.911 -0.1072  0.2692  0.2546
   68POPC   C1P 3515   1.327   5.614   3.998  0.1873  0.3041  0.6155
   68POPC   C1Q 3516   1.393   5.476   4.010  0.2687  0.2767 -0.0884
   68POPC   C1R 3517   1.305   5.404   4.112 -0.0641  0.1486 -0.4608
   68POPC    CE 3518   1.644   0.197   5.308 -0.0744  0.2743 -0.8890
   68POPC    OG 3519   1.778   0.149   5.319 -0.2783 -0.1550 -0.2420
   68POPC   C2A 3520   1.877   0.237   5.303 -0.2956  0.0649  0.7688
   68POPC    OH 3521   1.857   0.357   5.319 -0.5836  0.0214  0.7503
   68POPC   C2B 3522   1.995   0.149   5.319 -0.2412 -0.0544 -0.2000
   68POPC   C2C 3523   2.101   0.189   5.217 -0.0917 -0.3295 -0.1538
   68POPC   C2D 3524   2.055   0.124   5.086 -0.2486 -0.2827 -0.1220
   68POPC   C2E 3525   1.979   0.213   4.987 -0.2225 -0.3586 -0.2106
   68POPC   C2F 3526   1.848   0.150   4.939 -0.0660 -0.3949 -0.5969
   68POPC   C2G 3527   1.784   0.233   4.828 -0.7837  0.2160  0.2560
   68POPC   C2H 3528   1.714   0.354   4.890 -0.2523  0.5164  0.2820
   68POPC   C2I 3529   1.627   0.426   4.787  0.0343  0.4663  0.0030
   68POPC   C2J 3530   1.507   0.336   4.756  0.3985 -0.0628  0.1165
   68POPC   C2K 3531   1.388   0.420   4.710  0.3662 -0.2959 -0.2222
   68POPC   C2L 3532   1.285   0.338   4.631  0.3408 -0.3441 -0.1389
   68POPC   C2M 3533   1.172   0.426   4.578  0.5327 -0.0176 -0.0117
   68POPC   C2N 3534   1.208   0.505   4.452 -0.0757 -0.1389 -0.2650
   68POPC   C2O 3535   1.082   0.570   4.395 -0.2902 -0.2724  0.0496
   68POPC   C2P 3536   1.000   0.464   4.322 -0.2346 -0.2036 -0.1149
   69POPC   CN1 3537   1.396   5.028   5.624  0.1852  0.2366  0.1064
   69POPC   CN2 3538   1.619   5.027   5.695 -0.2632  0.1338  0.2912
   69POPC   CN3 3539   1.493   4.814   5.693  0.5287 -0.2639  0.0532
   69POPC   NTM 3540   1.490   4.959   5.714 -0.0919 -0.2679  0.0143
   69POPC    CA 3541   1.449   4.985   5.852 -0.1271 -0.4898  0.0464
   69POPC    CB 3542   1.541   4.957   5.971  0.9674  0.2618 -0.6061
   69POPC    OA 3543   1.586   4.822   5.982  0.1795  0.0392 -0.0027
   69POPC     P 3544   1.709   4.799   0.083 -0.0569 -0.3193  0.2041
   69POPC    OB 3545   1.712   4.653   0.107  0.2481 -0.2939  0.3317
   69POPC    OC 3546   1.713   4.900   0.191  0.6983 -0.3492  0.2132
   69POPC    OD 3547   1.812   4.840   5.967 -0.1834  0.0640  0.2266
   69POPC    CC 3548   1.839   4.728   5.883  0.0835  0.4786 -0.2471
   69POPC    CD 3549   1.948   4.750   5.777  0.2274  0.2257 -0.1523
   69POPC    OE 3550   1.928   4.647   5.680  0.5734  0.0216 -0.0080
   69POPC   C1A 3551   1.834   4.667   5.589  0.0803 -0.3254  0.4196
   69POPC    OF 3552   1.739   4.744   5.608 -0.1090 -0.7303  1.1741
   69POPC   C1B 3553   1.836   4.572   5.476  0.2694 -0.0036  0.1526
   69POPC   C1C 3554   1.935   4.605   5.364  0.3923 -0.1002  0.2327
   69POPC   C1D 3555   1.919   4.517   5.240  0.6998  0.1813 -0.0094
   69POPC   C1E 3556   1.998   4.589   5.130  0.3326  0.2118 -0.2568
   69POPC   C1F 3557   1.978   4.538   4.988 -0.3941  0.1071 -0.1228
   69POPC   C1G 3558   1.841   4.571   4.929 -0.4625  0.5387  0.2730
   69POPC   C1H 3559   1.841   4.525   4.783  0.3599  0.4112  0.3097
   69POPC   C1I 3560   1.840   4.372   4.781 -0.5285  0.4128  0.1351
   69POPC   C1J 3561   1.799   4.304   4.675  0.1977  0.0529  0.0781
   69POPC   C1K 3562   1.760   4.382   4.549  0.8502 -0.0168 -0.1678
   69POPC   C1L 3563   1.732   4.287   4.432 -0.0823 -0.0832  0.1089
   69POPC   C1M 3564   1.622   4.341   4.341  0.6021  0.0734 -0.6265
   69POPC   C1N 3565   1.552   4.234   4.257  0.2951 -0.0353 -0.2297
   69POPC   C1O 3566   1.493   4.108   4.321  0.2388  0.0579 -0.0975
   69POPC   C1P 3567   1.439   4.040   4.195 -0.0301  0.4306 -0.1855
   69POPC   C1Q 3568   1.425   3.896   4.246 -0.0619  0.4606 -0.1093
   69POPC   C1R 3569   1.437   3.795   4.133 -0.1613  0.0683  0.2281
   69POPC    CE 3570   2.084   4.768   5.845  0.0295  0.7755  0.1039
   69POPC    OG 3571   2.202   4.780   5.764  0.5105 -0.1316  0.6556
   69POPC   C2A 3572   2.223   4.900   5.711  0.7710 -0.0306  0.9855
   69POPC    OH 3573   2.151   4.998   5.729 -0.3053 -0.5114 -0.4722
   69POPC   C2B 3574   2.331   4.891   5.611  0.0313  0.5095  0.1196
   69POPC   C2C 3575   2.299   4.960   5.478  0.0975 -0.0578 -0.1900
   69POPC   C2D 3576   2.291   4.856   5.365 -0.1994  0.1558 -0.3662
   69POPC   C2E 3577   2.249   4.916   5.231 -0.4872  0.3568 -0.1873
   69POPC   C2F 3578   2.365   4.973   5.148 -0.0513 -0.1744  0.0546
   69POPC   C2G 3579   2.322   5.041   5.019  0.3688  0.2999  0.1617
   69POPC   C2H 3580   2.291   4.958   4.894  0.3484  0.2337  0.2112
   69POPC   C2I 3581   2.230   5.046   4.784  0.1017 -0.1258  0.0573
   69POPC   C2J 3582   2.152   4.960   4.685 -0.1820  0.1986 -0.0011
   69POPC   C2K 3583   2.241   4.885   4.586 -0.0158 -0.3111  0.5310
   69POPC   C2L 3584   2.186   4.776   4.493  0.3775 -0.5703  0.6000
   69POPC   C2M 3585   2.304   4.723   4.410  0.3545  0.0581  0.1532
   69POPC   C2N 3586   2.384   4.828   4.334 -0.1241  0.2996 -0.0207
   69POPC   C2O 3587   2.493   4.761   4.250  0.1701  0.1064  0.5090
   69POPC   C2P 3588   2.598   4.693   4.338 -0.1784 -0.7643  0.2588
   70POPC   CN1 3589   2.337   5.442   5.842  0.3445 -0.2237  0.2765
   70POPC   CN2 3590   2.357   5.279   5.671  0.5960 -1.1069 -0.1539
   70POPC   CN3 3591   2.144   5.311   5.781  0.3478 -0.6252  0.3392
   70POPC   NTM 3592   2.289   5.310   5.799  0.4597 -0.0212 -0.4759
   70POPC    CA 3593   2.318   5.211   5.904 -0.2182  0.1154 -0.1612
   70POPC    CB 3594   2.465   5.178   5.926 -0.3487  0.0235  0.6031
   70POPC    OA 3595   2.565   5.280   5.915 -0.1380 -0.2957 -0.6495
   70POPC     P 3596   2.709   5.216   5.879  0.1133 -0.0494 -0.1051
   70POPC    OB 3597   2.656   5.120   5.779  0.8302 -0.5783  0.0222
   70POPC    OC 3598   2.759   5.173   0.011 -0.0984 -0.2350 -0.0858
   70POPC    OD 3599   2.770   5.355   5.825 -0.5350  0.2355 -0.1187
   70POPC    CC 3600   2.739   5.382   5.688 -0.8093 -0.0942 -0.1240
   70POPC    CD 3601   2.778   5.518   5.629 -0.3061  0.0468  0.5253
   70POPC    OE 3602   2.732   5.542   5.496  0.2699  0.1333  0.3410
   70POPC   C1A 3603   2.739   5.668   5.454  0.8112 -0.0365 -0.0961
   70POPC    OF 3604   2.734   5.767   5.526  0.3974 -0.2892  0.2284
   70POPC   C1B 3605   2.701   5.668   5.311 -0.1492 -0.1630  0.1517
   70POPC   C1C 3606   2.687   5.806   5.247  0.4876 -0.1053  0.1286
   70POPC   C1D 3607   2.693   5.793   5.095  0.5181  0.5338  0.0721
   70POPC   C1E 3608   2.644   5.911   5.011  0.5320  0.5230  0.0485
   70POPC   C1F 3609   2.667   5.882   4.863  0.2209  0.2657  0.0503
   70POPC   C1G 3610   2.587   5.977   4.773  0.5039  0.1680 -0.3069
   70POPC   C1H 3611   2.607   5.930   4.628  0.3310 -0.5868 -0.0934
   70POPC   C1I 3612   2.499   5.972   4.527  0.0860 -0.2295  0.3091
   70POPC   C1J 3613   2.524   6.063   4.434  0.0337 -0.6553 -0.1246
   70POPC   C1K 3614   2.657   6.139   4.435 -0.0003 -0.5911 -0.3800
   70POPC   C1L 3615   2.655   6.238   4.318  0.5232  0.0354  0.1327
   70POPC   C1M 3616   2.779   6.327   4.317  0.3757  0.2420 -0.1316
   70POPC   C1N 3617   2.790   0.065   4.186  0.1136  0.4932 -0.0050
   70POPC   C1O 3618   2.910   0.159   4.184  0.2640  0.2963 -0.4390
   70POPC   C1P 3619   3.048   0.094   4.175  0.5456  0.8329 -0.0996
   70POPC   C1Q 3620   3.052   0.005   4.050 -0.1781  0.5132  0.0995
   70POPC   C1R 3621   3.158   6.234   4.051 -0.4590  0.2402 -0.3631
   70POPC    CE 3622   2.927   5.539   5.657 -0.0535 -0.8124 -0.1591
   70POPC    OG 3623   3.001   5.432   5.597  0.4604 -0.2382 -0.5519
   70POPC   C2A 3624   3.119   5.392   5.643  0.0647 -0.8040 -0.0053
   70POPC    OH 3625   3.169   5.463   5.730 -0.0595 -0.0461 -0.5386
   70POPC   C2B 3626   3.193   5.289   5.566  0.5488 -0.3521 -0.1538
   70POPC   C2C 3627   3.316   5.234   5.640  0.4853  0.0624  0.2697
   70POPC   C2D 3628   3.335   5.089   5.594  0.3321  0.1425 -0.0577
   70POPC   C2E 3629   3.395   5.080   5.454  0.0765  0.5807 -0.1947
   70POPC   C2F 3630   3.417   4.937   5.404 -0.0836  0.2376  0.6988
   70POPC   C2G 3631   3.287   4.861   5.377  0.2650 -0.2155  0.2765
   70POPC   C2H 3632   3.216   4.901   5.248 -0.1308  0.1272  0.5979
   70POPC   C2I 3633   3.075   4.842   5.244  0.1215 -0.4364 -0.2172
   70POPC   C2J 3634   3.008   4.904   5.121  0.0729  0.2994  0.1730
   70POPC   C2K 3635   2.871   4.855   5.076  0.4643 -0.6694 -0.0044
   70POPC   C2L 3636   2.844   4.907   4.934 -0.0118 -0.1331  0.2810
   70POPC   C2M 3637   2.700   4.867   4.899 -0.2192  0.5463  0.3380
   70POPC   C2N 3638   2.675   4.876   4.749 -0.5552  0.3483  0.3839
   70POPC   C2O 3639   2.694   5.014   4.687  0.0438  0.0742 -0.0507
   70POPC   C2P 3640   2.625   5.033   4.552 -0.6502  0.2906  0.3294
   71POPC   CN1 3641   1.828   1.390   5.182  0.0680  0.3795 -0.0120
   71POPC   CN2 3642   1.870   1.162   5.173 -0.0780 -0.4478 -0.0383
   71POPC   CN3 3643   1.708   1.246   5.329 -0.3771  0.0724 -0.5127
   71POPC   NTM 3644   1.839   1.271   5.267 -0.3790 -0.0680 -0.5719
   71POPC    CA 3645   1.952   1.286   5.361 -0.5391 -0.4817 -0.3096
   71POPC    CB 3646   1.966   1.218   5.497  0.1440  0.0548 -0.1059
   71POPC    OA 3647   1.934   1.079   5.487 -0.2552  0.1299  0.0888
   71POPC     P 3648   1.951   1.006   5.629 -0.3701 -0.1621 -0.0462
   71POPC    OB 3649   1.890   0.871   5.623 -0.1747 -0.2474 -0.1414
   71POPC    OC 3650   1.928   1.102   5.740 -0.3009  0.2470 -0.3843
   71POPC    OD 3651   2.111   0.987   5.626 -0.3687 -0.1577 -0.0083
   71POPC    CC 3652   2.150   0.866   5.559 -0.0750 -0.1043  0.0669
   71POPC    CD 3653   2.178   0.881   5.410  0.1583  0.0417  0.1236
   71POPC    OE 3654   2.166   0.752   5.349 -0.1007 -0.1623  0.6061
   71POPC   C1A 3655   2.099   0.744   5.235  0.1934 -0.0253  0.4245
   71POPC    OF 3656   2.015   0.829   5.204  0.5747  0.0646 -0.4100
   71POPC   C1B 3657   2.116   0.618   5.158  0.1391  0.1799  0.0716
   71POPC   C1C 3658   2.178   0.631   5.019  0.7003  0.5694  0.3546
   71POPC   C1D 3659   2.111   0.729   4.923  0.1592 -0.0805  0.0607
   71POPC   C1E 3660   1.959   0.719   4.909  0.1821 -0.0943 -0.1953
   71POPC   C1F 3661   1.922   0.857   4.854 -0.0206 -0.0742 -0.0118
   71POPC   C1G 3662   1.772   0.885   4.849  0.0061  0.0776  0.0502
   71POPC   C1H 3663   1.710   0.819   4.726 -0.0774 -0.4470  0.3719
   71POPC   C1I 3664   1.557   0.832   4.726 -0.0233  0.2364  0.0477
   71POPC   C1J 3665   1.496   0.847   4.609  0.2038  1.0885  0.0299
   71POPC   C1K 3666   1.575   0.827   4.480 -0.1332  0.7672 -0.1281
   71POPC   C1L 3667   1.492   0.874   4.360 -0.1646 -0.2278 -0.5068
   71POPC   C1M 3668   1.575   0.828   4.240  0.5323  0.0553 -0.1401
   71POPC   C1N 3669   1.494   0.849   4.111 -0.3827 -0.1584  0.3914
   71POPC   C1O 3670   1.388   0.746   4.075 -0.3070 -0.0781 -0.0698
   71POPC   C1P 3671   1.463   0.618   4.037 -0.4320 -0.2035  0.0991
   71POPC   C1Q 3672   1.378   0.511   3.967 -0.4159 -0.2914  0.2134
   71POPC   C1R 3673   1.468   0.390   3.943 -0.4815 -0.2564 -0.2268
   71POPC    CE 3674   2.303   0.968   5.396 -0.2980  0.6924 -0.0047
   71POPC    OG 3675   2.353   1.015   5.270  0.2793  0.1772  0.0264
   71POPC   C2A 3676   2.329   1.142   5.242 -0.0489  0.1318  0.0996
   71POPC    OH 3677   2.271   1.214   5.323  0.0505 -0.6139  0.8488
   71POPC   C2B 3678   2.382   1.179   5.109  0.1167 -0.3204  0.0400
   71POPC   C2C 3679   2.264   1.185   5.012  0.1326 -0.6208  0.0011
   71POPC   C2D 3680   2.297   1.185   4.863  0.1135  0.4344 -0.0109
   71POPC   C2E 3681   2.356   1.055   4.809 -0.5822  0.2341 -0.2970
   71POPC   C2F 3682   2.387   1.067   4.659  0.2987 -0.1790 -0.1585
   71POPC   C2G 3683   2.364   0.927   4.604 -0.1200 -0.2431  0.1746
   71POPC   C2H 3684   2.412   0.896   4.462 -0.1469  0.5194 -0.0048
   71POPC   C2I 3685   2.410   0.744   4.439  0.5795  0.4897  0.1103
   71POPC   C2J 3686   2.441   0.719   4.291  0.4735 -0.1903  0.2033
   71POPC   C2K 3687   2.440   0.571   4.250 -0.7180 -0.1267 -0.0140
   71POPC   C2L 3688   2.418   0.545   4.101 -0.0246  0.1534 -0.1692
   71POPC   C2M 3689   2.497   0.639   4.009 -0.1077  0.1556 -0.2383
   71POPC   C2N 3690   2.638   0.586   3.984  0.0163  0.0121  0.7365
   71POPC   C2O 3691   2.656   0.454   3.909  0.1478  0.1649  0.4978
   71POPC   C2P 3692   2.794   0.395   3.939  0.0571 -0.1592  0.2876
   72POPC   CN1 3693   1.414   2.949   5.384  0.1395 -0.6379  0.2177
   72POPC   CN2 3694   1.266   3.063   5.527  0.0669  0.4896 -0.0691
   72POPC   CN3 3695   1.440   3.187   5.445 -0.2253  0.1902  0.5940
   72POPC   NTM 3696   1.408   3.051   5.490 -0.0350 -0.1447 -0.2606
   72POPC    CA 3697   1.496   3.007   5.598 -0.0114 -0.1928 -0.2994
   72POPC    CB 3698   1.505   3.082   5.731 -0.3882  0.2296 -0.5108
   72POPC    OA 3699   1.398   3.086   5.826  0.0483 -0.1462  0.0099
   72POPC     P 3700   1.400   2.967   5.933  0.0585 -0.0445  0.1224
   72POPC    OB 3701   1.327   3.022   0.049 -0.2953 -0.5694  0.1529
   72POPC    OC 3702   1.539   2.916   5.945  0.1454  0.2629  0.4418
   72POPC    OD 3703   1.305   2.866   5.851  0.3559  0.1684 -0.4851
   72POPC    CC 3704   1.169   2.869   5.892  0.4302 -0.2811 -0.2071
   72POPC    CD 3705   1.064   2.862   5.781  0.2609  0.1038 -0.0739
   72POPC    OE 3706   0.938   2.926   5.805  0.0830 -0.1230 -0.3970
   72POPC   C1A 3707   0.893   3.001   5.704 -0.1993 -0.3100 -0.4105
   72POPC    OF 3708   0.975   3.069   5.643 -0.1343  0.0400  0.0591
   72POPC   C1B 3709   0.753   3.041   5.731  0.0589  0.2063  0.1892
   72POPC   C1C 3710   0.732   3.179   5.667  0.2156  0.1284 -0.0305
   72POPC   C1D 3711   0.585   3.219   5.677  0.3101  0.4814 -0.0545
   72POPC   C1E 3712   0.506   3.156   5.562  0.2603  0.1532  0.1582
   72POPC   C1F 3713   0.361   3.206   5.567 -0.0560 -0.5848 -1.0842
   72POPC   C1G 3714   0.363   3.355   5.533  0.4082 -0.3218  0.0343
   72POPC   C1H 3715   0.384   3.385   5.384  0.1419 -0.2263  0.0150
   72POPC   C1I 3716   0.393   3.534   5.354  0.3840 -0.1155  0.6285
   72POPC   C1J 3717   0.468   3.576   5.253 -0.7014  0.0431 -0.1287
   72POPC   C1K 3718   0.533   3.485   5.148 -0.0704 -0.0767  0.3568
   72POPC   C1L 3719   0.520   3.550   5.010 -0.2974 -0.6611  0.0975
   72POPC   C1M 3720   0.614   3.483   4.910 -0.3676 -0.1521 -0.3190
   72POPC   C1N 3721   0.599   3.531   4.766  0.4799 -0.0964 -0.3962
   72POPC   C1O 3722   0.710   3.507   4.664  0.7585 -0.2123 -0.0652
   72POPC   C1P 3723   0.679   3.605   4.551 -0.0285  0.0498  0.3727
   72POPC   C1Q 3724   0.787   3.602   4.442 -0.3392 -0.2906  0.0718
   72POPC   C1R 3725   0.726   3.623   4.303 -0.7996 -0.2868  0.2702
   72POPC    CE 3726   1.062   2.715   5.738 -0.1185 -0.0052  0.3049
   72POPC    OG 3727   1.000   2.680   5.615  0.0485 -0.0797  0.2415
   72POPC   C2A 3728   1.073   2.700   5.505 -0.3216  0.2322  0.0494
   72POPC    OH 3729   1.175   2.767   5.506 -0.2584  0.1354  0.4343
   72POPC   C2B 3730   1.005   2.649   5.384 -0.4268 -0.2818  0.3224
   72POPC   C2C 3731   0.880   2.734   5.359 -0.1483 -0.0824 -0.4058
   72POPC   C2D 3732   0.904   2.815   5.231  0.1619 -0.3186 -0.4982
   72POPC   C2E 3733   0.782   2.903   5.201 -0.2440 -0.7361 -0.0844
   72POPC   C2F 3734   0.812   2.975   5.070 -0.5602 -0.0935  0.1943
   72POPC   C2G 3735   0.686   3.041   5.015 -0.1205  0.5656 -0.0352
   72POPC   C2H 3736   0.561   2.953   5.011  0.1619  0.1371  0.4938
   72POPC   C2I 3737   0.435   3.040   5.020 -0.0627 -0.1173 -0.1799
   72POPC   C2J 3738   0.397   3.116   4.893 -0.4358  0.1742  0.1061
   72POPC   C2K 3739   0.353   3.026   4.777  0.2912 -0.4321  0.2972
   72POPC   C2L 3740   0.224   2.948   4.802  0.1055 -0.0668  0.4838
   72POPC   C2M 3741   0.163   2.888   4.675  0.2350 -0.3545  0.5574
   72POPC   C2N 3742   0.042   2.797   4.696 -0.0714 -0.0713  0.0532
   72POPC   C2O 3743   6.310   2.731   4.565  0.2019 -0.1156 -0.0142
   72POPC   C2P 3744   6.203   2.624   4.584 -0.3318  0.3855 -0.1478
   73POPC   CN1 3745   3.093   4.572   5.458  0.4663 -0.0731  0.0106
   73POPC   CN2 3746   3.176   4.366   5.574  0.2378  0.4015  0.0637
   73POPC   CN3 3747   2.947   4.425   5.580 -0.3073 -0.4556 -0.0089
   73POPC   NTM 3748   3.083   4.481   5.573 -0.4411 -0.1418 -0.1149
   73POPC    CA 3749   3.104   4.561   5.694 -0.2991 -0.0757 -0.1825
   73POPC    CB 3750   3.232   4.642   5.712 -0.1230 -0.5136  0.5890
   73POPC    OA 3751   3.349   4.560   5.708  0.1970 -0.0444  0.1947
   73POPC     P 3752   3.482   4.650   5.706  0.1280  0.0579  0.1768
   73POPC    OB 3753   3.592   4.572   5.767 -0.1424 -0.5279 -0.0854
   73POPC    OC 3754   3.454   4.786   5.759 -0.8428 -0.0112 -0.1436
   73POPC    OD 3755   3.503   4.650   5.546  0.1103  0.2860  0.1738
   73POPC    CC 3756   3.562   4.526   5.504  0.2593  0.5581 -0.4259
   73POPC    CD 3757   3.559   4.512   5.352  0.0156 -0.1825 -0.3557
   73POPC    OE 3758   3.577   4.376   5.311  0.2862 -0.0557 -0.6648
   73POPC   C1A 3759   3.472   4.295   5.311 -0.2184  0.5910 -0.8110
   73POPC    OF 3760   3.362   4.321   5.360  0.0097 -0.2496  0.1832
   73POPC   C1B 3761   3.507   4.165   5.249 -0.0344  0.1467  0.1967
   73POPC   C1C 3762   3.477   4.151   5.099  0.6543  0.1875  0.0508
   73POPC   C1D 3763   3.527   4.257   5.001  0.2622  0.3298  0.0049
   73POPC   C1E 3764   3.569   4.177   4.877  0.1645  0.4259 -0.0912
   73POPC   C1F 3765   3.557   4.260   4.749  0.1405  0.1422 -0.2729
   73POPC   C1G 3766   3.583   4.169   4.629  0.2246 -0.1558 -0.0306
   73POPC   C1H 3767   3.640   4.240   4.506  0.0535 -0.4024 -0.2555
   73POPC   C1I 3768   3.625   4.183   4.365  0.1131 -0.1284 -0.3749
   73POPC   C1J 3769   3.672   4.251   4.261 -0.2838 -0.0663 -0.5156
   73POPC   C1K 3770   3.729   4.392   4.274  0.0926 -0.2674  0.0926
   73POPC   C1L 3771   3.689   4.479   4.154  0.9706  0.5269  0.3700
   73POPC   C1M 3772   3.735   4.620   4.194  0.9034  0.4350  0.7828
   73POPC   C1N 3773   3.879   4.644   4.146  0.8218 -0.1195  0.2398
   73POPC   C1O 3774   3.933   4.786   4.158  0.1739  0.1163  0.4285
   73POPC   C1P 3775   4.081   4.794   4.119  0.0207 -0.3295 -0.2482
   73POPC   C1Q 3776   4.167   4.759   4.240 -0.5068  0.2638  0.3008
   73POPC   C1R 3777   4.161   4.862   4.354 -0.6597  0.2681  0.2889
   73POPC    CE 3778   3.641   4.634   5.311 -0.1779  0.1224  0.1572
   73POPC    OG 3779   3.780   4.618   5.284 -0.0555  0.5003  0.5474
   73POPC   C2A 3780   3.845   4.734   5.272  0.0442  0.3916 -0.0290
   73POPC    OH 3781   3.805   4.824   5.346 -0.1180  0.0679  0.2836
   73POPC   C2B 3782   3.985   4.715   5.231 -0.1133 -0.1143 -0.3448
   73POPC   C2C 3783   4.032   4.675   5.091  0.1189 -0.5989 -0.1306
   73POPC   C2D 3784   4.184   4.678   5.081  0.0944 -0.0941 -0.4181
   73POPC   C2E 3785   4.234   4.713   4.941  0.7259  0.1565 -0.1333
   73POPC   C2F 3786   4.200   4.858   4.905 -0.2150  0.1018  0.5148
   73POPC   C2G 3787   4.261   4.894   4.769 -0.1772  0.1853  0.5541
   73POPC   C2H 3788   4.226   5.042   4.756 -0.2820  0.0918 -0.2315
   73POPC   C2I 3789   4.297   5.106   4.636 -0.5271 -0.1159 -0.4903
   73POPC   C2J 3790   4.304   5.259   4.638  0.1951 -0.1455 -0.1886
   73POPC   C2K 3791   4.348   5.307   4.499  0.0216 -0.0758 -0.2205
   73POPC   C2L 3792   4.500   5.292   4.500  0.0297 -0.0159  0.4970
   73POPC   C2M 3793   4.554   5.340   4.364  0.0426 -0.1214  0.4643
   73POPC   C2N 3794   4.704   5.321   4.342  0.0688 -0.2228  0.7177
   73POPC   C2O 3795   4.751   5.314   4.197 -0.4556  0.3772  0.5129
   73POPC   C2P 3796   4.658   5.213   4.128 -0.2254  0.5135  0.0003
   74POPC   CN1 3797   5.228   2.908   5.939  0.1483 -0.3152 -0.1353
   74POPC   CN2 3798   5.099   2.853   5.757  0.1221  0.1181  0.1800
   74POPC   CN3 3799   5.172   3.076   5.781  0.0762  0.2293  0.4400
   74POPC   NTM 3800   5.120   2.960   5.855  0.0689  0.0908  0.2203
   74POPC    CA 3801   4.995   2.978   5.931  0.1702  0.2013  0.3617
   74POPC    CB 3802   4.906   3.099   5.901 -0.2424 -0.3064 -0.4969
   74POPC    OA 3803   4.968   3.224   5.933 -0.5140 -0.2127 -0.3287
   74POPC     P 3804   4.883   3.357   5.900 -0.0261  0.1389 -0.1731
   74POPC    OB 3805   4.981   3.454   5.954  0.2547 -0.3733  0.2487
   74POPC    OC 3806   4.751   3.330   5.961  0.2803 -0.8298  0.0890
   74POPC    OD 3807   4.872   3.365   5.739  0.1752  0.3548 -0.1767
   74POPC    CC 3808   4.995   3.390   5.671  0.3487 -0.8001 -0.2965
   74POPC    CD 3809   4.989   3.361   5.521  0.0145 -0.3378 -0.3738
   74POPC    OE 3810   5.006   3.223   5.487  0.2665 -0.2609 -0.5566
   74POPC   C1A 3811   4.896   3.148   5.479  0.1383 -0.1321 -0.0294
   74POPC    OF 3812   4.789   3.208   5.481  0.3336  0.2161  0.3054
   74POPC   C1B 3813   4.925   3.009   5.440  0.3955 -0.2627  0.6118
   74POPC   C1C 3814   4.816   2.913   5.487  0.3729 -0.2709  0.5431
   74POPC   C1D 3815   4.845   2.766   5.455  0.7330 -0.1906  0.4965
   74POPC   C1E 3816   4.753   2.662   5.519 -0.0292  0.2169  0.0845
   74POPC   C1F 3817   4.611   2.671   5.462  0.0067  0.1347 -0.0185
   74POPC   C1G 3818   4.535   2.539   5.476  0.1781  0.0530  0.1510
   74POPC   C1H 3819   4.397   2.548   5.411  0.5799  0.1512 -0.7110
   74POPC   C1I 3820   4.326   2.418   5.371 -0.0098  0.2299  0.0473
   74POPC   C1J 3821   4.260   2.408   5.257  0.3300 -0.2302 -0.1118
   74POPC   C1K 3822   4.254   2.539   5.178 -0.1361 -0.1184  0.1053
   74POPC   C1L 3823   4.285   2.511   5.031  0.0916  0.1350  0.1030
   74POPC   C1M 3824   4.262   2.634   4.943  0.2894 -0.0705 -0.2381
   74POPC   C1N 3825   4.338   2.620   4.811 -0.2458 -0.9563 -0.4557
   74POPC   C1O 3826   4.251   2.674   4.697  0.0038 -0.1935 -0.2836
   74POPC   C1P 3827   4.348   2.711   4.585  0.4993  0.4788  0.3525
   74POPC   C1Q 3828   4.375   2.583   4.505 -0.4976  0.5393 -0.0957
   74POPC   C1R 3829   4.463   2.603   4.381 -0.0156 -0.4303  0.0799
   74POPC    CE 3830   5.064   3.464   5.438 -0.5448  0.4860  0.1293
   74POPC    OG 3831   5.000   3.591   5.423 -0.1711  0.6514 -0.0665
   74POPC   C2A 3832   5.069   3.676   5.346  0.4314  0.0801 -0.1676
   74POPC    OH 3833   5.190   3.664   5.327  0.4666  0.3297 -0.1039
   74POPC   C2B 3834   4.993   3.796   5.304 -0.2139 -0.1613  0.2963
   74POPC   C2C 3835   4.879   3.760   5.209  0.3139 -0.8110 -0.1013
   74POPC   C2D 3836   4.941   3.714   5.077  0.3649 -0.0305 -0.3578
   74POPC   C2E 3837   4.851   3.620   4.995 -0.3068  0.0279  0.2973
   74POPC   C2F 3838   4.818   3.489   5.066 -0.4095 -0.1562 -0.0878
   74POPC   C2G 3839   4.940   3.396   5.055 -0.0799  0.2813 -0.1329
   74POPC   C2H 3840   4.917   3.252   5.100 -0.3235  0.2261 -0.4294
   74POPC   C2I 3841   5.033   3.153   5.087 -0.4913 -0.1273  0.6277
   74POPC   C2J 3842   5.044   3.103   4.942  0.1880  0.7136  0.3812
   74POPC   C2K 3843   4.945   2.990   4.914  1.1109 -0.0295  0.0874
   74POPC   C2L 3844   4.923   2.951   4.768 -0.1014  0.1624  0.2047
   74POPC   C2M 3845   4.825   2.834   4.766 -0.2339  0.2738  0.1715
   74POPC   C2N 3846   4.776   2.802   4.625 -0.2113 -0.9600  0.4303
   74POPC   C2O 3847   4.887   2.760   4.528  0.4577  0.9145  0.3443
   74POPC   C2P 3848   4.858   2.805   4.385  0.4272  0.0734  0.0807
   75POPC   CN1 3849   1.138   5.565   5.672  0.5157  0.2030  0.1489
   75POPC   CN2 3850   1.046   5.711   5.830 -0.4054  0.2436  0.4341
   75POPC   CN3 3851   1.265   5.752   5.742  0.2308  0.7217 -0.2381
   75POPC   NTM 3852   1.172   5.648   5.788 -0.1960  1.0903 -0.2586
   75POPC    CA 3853   1.234   5.575   5.900 -0.2092  0.2390 -0.8005
   75POPC    CB 3854   1.359   5.488   5.884 -0.2884 -0.0610  0.1349
   75POPC    OA 3855   1.474   5.540   5.816 -0.4006  0.0041 -0.0071
   75POPC     P 3856   1.581   5.426   5.779 -0.0918  0.2507  0.1226
   75POPC    OB 3857   1.586   5.329   5.890  0.1104 -0.0079 -0.1085
   75POPC    OC 3858   1.703   5.506   5.754 -0.1923  0.4420  0.2506
   75POPC    OD 3859   1.529   5.347   5.648 -0.3656  0.2868  0.2099
   75POPC    CC 3860   1.555   5.428   5.534  0.0044  0.1841  0.2192
   75POPC    CD 3861   1.436   5.465   5.445  0.2757 -0.0089 -0.2247
   75POPC    OE 3862   1.375   5.356   5.375 -0.3825  0.4710 -0.4028
   75POPC   C1A 3863   1.271   5.294   5.432 -0.1709  0.3038 -0.1988
   75POPC    OF 3864   1.225   5.323   5.542 -0.4934 -0.9471  0.0036
   75POPC   C1B 3865   1.222   5.186   5.345 -0.6181  0.3890 -0.0536
   75POPC   C1C 3866   1.092   5.108   5.368  0.0657 -0.5685  0.6150
   75POPC   C1D 3867   1.074   5.021   5.244  0.2601 -0.2890  0.3908
   75POPC   C1E 3868   0.994   5.110   5.148 -0.0070 -0.1248  0.7636
   75POPC   C1F 3869   0.940   5.021   5.036 -0.3272  0.4094  0.4935
   75POPC   C1G 3870   0.876   5.098   4.920 -0.0205  0.5847  0.4400
   75POPC   C1H 3871   0.894   5.029   4.785 -0.1278  0.6805  0.3765
   75POPC   C1I 3872   0.827   5.101   4.667 -0.1469 -0.1753 -0.1421
   75POPC   C1J 3873   0.885   5.121   4.549 -0.4798 -0.7977 -0.4167
   75POPC   C1K 3874   1.037   5.105   4.558 -0.3474  0.4827 -0.2323
   75POPC   C1L 3875   1.085   5.024   4.437 -0.0236  0.4281 -0.0691
   75POPC   C1M 3876   1.237   5.019   4.422 -0.0139 -0.1362  0.1930
   75POPC   C1N 3877   1.274   4.928   4.305 -0.5303 -0.2893  0.1484
   75POPC   C1O 3878   1.207   4.974   4.175  0.3287  0.2174 -0.1208
   75POPC   C1P 3879   1.224   4.876   4.060  0.3577 -0.1807  0.2198
   75POPC   C1Q 3880   1.123   4.934   3.961  0.4305 -0.1609  0.1570
   75POPC   C1R 3881   1.087   4.855   3.835  0.4976  0.2341 -0.1144
   75POPC    CE 3882   1.480   5.575   5.349  0.1213  0.0387 -0.2403
   75POPC    OG 3883   1.588   5.535   5.263 -0.2389 -0.1800 -0.5948
   75POPC   C2A 3884   1.555   5.493   5.142 -0.0673 -0.3735 -0.5739
   75POPC    OH 3885   1.453   5.535   5.087 -0.7607 -0.5521  0.5406
   75POPC   C2B 3886   1.657   5.406   5.078  0.4086 -0.1490 -0.1240
   75POPC   C2C 3887   1.595   5.318   4.970  0.1119 -0.5643  0.3764
   75POPC   C2D 3888   1.716   5.243   4.915  0.3821  0.1615 -0.0359
   75POPC   C2E 3889   1.673   5.142   4.808  0.4410  0.0028  0.0887
   75POPC   C2F 3890   1.777   5.067   4.724  0.2491  0.1374 -0.2707
   75POPC   C2G 3891   1.716   4.999   4.602  0.3524 -0.4404 -0.0030
   75POPC   C2H 3892   1.809   4.949   4.491  0.4237  0.2723 -0.2714
   75POPC   C2I 3893   1.723   4.901   4.374  0.3834 -0.4559  0.0488
   75POPC   C2J 3894   1.808   4.882   4.248 -0.0086  0.3254 -0.3417
   75POPC   C2K 3895   1.799   4.740   4.191  0.1638  0.2674 -0.2269
   75POPC   C2L 3896   1.828   4.731   4.041 -0.1500  0.1857 -0.2844
   75POPC   C2M 3897   1.709   4.789   3.965 -0.2409  0.0856 -0.2194
   75POPC   C2N 3898   1.578   4.710   3.957  0.0649 -0.4726  0.2478
   75POPC   C2O 3899   1.582   4.582   3.874  0.3067 -0.3015 -0.0081
   75POPC   C2P 3900   1.617   4.607   3.727  0.2818  0.3012  0.0886
   76POPC   CN1 3901   0.558   5.727   5.746  0.2569 -0.5136  0.2149
   76POPC   CN2 3902   0.400   5.781   5.926 -0.1543 -0.2936  0.0968
   76POPC   CN3 3903   0.633   5.806   5.954  0.2041 -0.2661  0.2424
   76POPC   NTM 3904   0.530   5.722   5.890  0.0095  0.0155  0.1868
   76POPC    CA 3905   0.523   5.587   5.947  0.3178 -0.0689  0.0243
   76POPC    CB 3906   0.645   5.496   5.965  0.2511 -0.0967  0.3387
   76POPC    OA 3907   0.728   5.475   5.850  0.0788  0.3339  0.1322
   76POPC     P 3908   0.843   5.375   5.902 -0.1329  0.0639  0.0825
   76POPC    OB 3909   0.764   5.262   5.955  0.0276  0.0370  0.2681
   76POPC    OC 3910   0.944   5.457   5.974  0.1843  0.2837 -0.6029
   76POPC    OD 3911   0.909   5.332   5.762  0.1563  0.1001  0.2068
   76POPC    CC 3912   0.862   5.222   5.684  0.6729  0.2268 -0.2911
   76POPC    CD 3913   0.737   5.248   5.599  0.2547  0.0436  0.2610
   76POPC    OE 3914   0.696   5.134   5.522  0.6254  0.0518  0.0445
   76POPC   C1A 3915   0.567   5.102   5.521  0.5306  0.4211  0.0909
   76POPC    OF 3916   0.491   5.131   5.614  0.1378  0.1729 -0.1455
   76POPC   C1B 3917   0.538   5.010   5.409  0.0366  0.4910  0.1561
   76POPC   C1C 3918   0.395   5.011   5.356  0.1788 -0.5112 -0.2718
   76POPC   C1D 3919   0.347   5.145   5.300  0.3280 -0.5122 -0.4006
   76POPC   C1E 3920   0.201   5.128   5.259  0.0557  0.1198  0.3044
   76POPC   C1F 3921   0.200   5.060   5.122 -0.2802 -0.4776  0.6019
   76POPC   C1G 3922   0.060   5.008   5.089 -0.2610  0.0593 -0.3460
   76POPC   C1H 3923   6.290   5.112   5.010 -0.0441  0.2117 -0.3677
   76POPC   C1I 3924   6.184   5.028   4.937 -0.1701  0.2923 -0.2785
   76POPC   C1J 3925   6.202   5.005   4.807  0.1027 -1.0511 -0.0208
   76POPC   C1K 3926   0.003   5.081   4.734 -0.2517 -0.4484  0.0579
   76POPC   C1L 3927   0.053   4.993   4.619  0.1197  0.0769 -0.1856
   76POPC   C1M 3928   6.267   5.004   4.499 -0.0021 -0.0603 -0.1010
   76POPC   C1N 3929   6.293   4.899   4.391 -0.0220  0.0941 -0.2571
   76POPC   C1O 3930   6.234   4.959   4.264  0.4308  0.2847 -0.3807
   76POPC   C1P 3931   6.249   4.863   4.146 -0.1290  0.1431 -0.3387
   76POPC   C1Q 3932   6.208   4.936   4.018 -0.1487 -0.2089 -0.5356
   76POPC   C1R 3933   6.055   4.935   4.007 -0.1786  0.0004 -0.1638
   76POPC    CE 3934   0.742   5.385   5.531 -0.0954 -0.2430 -0.3503
   76POPC    OG 3935   0.843   5.383   5.430  0.2527 -0.4200  0.0021
   76POPC   C2A 3936   0.886   5.505   5.401 -0.5624 -0.1826 -0.2089
   76POPC    OH 3937   0.851   5.604   5.466  0.2445 -0.0529  0.0358
   76POPC   C2B 3938   1.008   5.511   5.318 -0.3876  0.3160  0.0795
   76POPC   C2C 3939   0.981   5.511   5.168 -0.3954 -0.1792  0.0797
   76POPC   C2D 3940   1.117   5.483   5.102 -0.6339 -0.9618 -0.0938
   76POPC   C2E 3941   1.093   5.475   4.951  0.1665 -0.0577 -0.2778
   76POPC   C2F 3942   1.223   5.427   4.885  0.1040 -0.1028 -0.3677
   76POPC   C2G 3943   1.199   5.395   4.737  0.0029 -0.3519 -0.2988
   76POPC   C2H 3944   1.320   5.338   4.664 -0.0161 -0.2517 -0.4095
   76POPC   C2I 3945   1.391   5.448   4.585 -0.0634 -0.0749 -0.2062
   76POPC   C2J 3946   1.510   5.384   4.514  0.5751  0.4590  0.3769
   76POPC   C2K 3947   1.556   5.486   4.410 -0.4282  0.2735 -0.2613
   76POPC   C2L 3948   1.660   5.415   4.323 -0.2784 -0.6039  0.6202
   76POPC   C2M 3949   1.789   5.373   4.393  0.2031 -0.0736  0.0533
   76POPC   C2N 3950   1.875   5.287   4.301 -0.4017 -0.1368 -0.4508
   76POPC   C2O 3951   2.009   5.267   4.372 -0.6531  0.1990  0.1231
   76POPC   C2P 3952   2.089   5.174   4.280 -0.4903  0.3619  0.1001
   77POPC   CN1 3953   5.448   4.949   5.420  0.7288  0.7238 -0.4912
   77POPC   CN2 3954   5.257   5.035   5.532 -0.3474  0.7808 -0.3209
   77POPC   CN3 3955   5.481   5.119   5.576 -0.1404 -0.2233  0.0398
   77POPC   NTM 3956   5.399   5.000   5.548 -0.4506  0.1624 -0.7052
   77POPC    CA 3957   5.427   4.889   5.640 -0.0789  0.7579 -0.0881
   77POPC    CB 3958   5.434   4.908   5.792  0.7025  0.0832 -0.0338
   77POPC    OA 3959   5.307   4.955   5.836  0.4702 -0.3769 -0.1967
   77POPC     P 3960   5.319   5.075   5.943  0.3381 -0.4190 -0.1350
   77POPC    OB 3961   5.447   5.120   0.003  0.1278  0.0930 -0.0613
   77POPC    OC 3962   5.192   5.101   0.016  0.3976 -0.6090  0.0379
   77POPC    OD 3963   5.303   5.183   5.825  0.3613 -0.2439  0.0221
   77POPC    CC 3964   5.297   5.319   5.869  0.2554 -0.3697  0.3982
   77POPC    CD 3965   5.363   5.417   5.772  0.1186 -0.7508 -0.0821
   77POPC    OE 3966   5.472   5.495   5.820 -0.4538  0.0625 -0.0733
   77POPC   C1A 3967   5.592   5.444   5.793 -0.4538 -0.3808  0.7527
   77POPC    OF 3968   5.613   5.339   5.734  0.0789  0.3804 -0.4487
   77POPC   C1B 3969   5.701   5.537   5.833 -0.3378 -0.1894  0.0073
   77POPC   C1C 3970   5.780   5.614   5.727 -0.0668 -0.0925  0.2779
   77POPC   C1D 3971   5.688   5.686   5.628  0.1463 -0.1842  0.0105
   77POPC   C1E 3972   5.750   5.786   5.531  0.3540  0.2802  0.6133
   77POPC   C1F 3973   5.640   5.847   5.444  0.6162  0.0015  0.0744
   77POPC   C1G 3974   5.700   5.936   5.336  0.0755  0.4025  0.0996
   77POPC   C1H 3975   5.587   6.016   5.271 -0.3986 -0.3281  0.0166
   77POPC   C1I 3976   5.567   6.144   5.352  1.0416  0.0537 -0.2184
   77POPC   C1J 3977   5.491   6.237   5.294  0.1867 -0.4621  0.0722
   77POPC   C1K 3978   5.414   6.193   5.170  0.2505  0.2273 -0.2132
   77POPC   C1L 3979   5.402   6.307   5.068  0.2960 -0.0744 -0.5601
   77POPC   C1M 3980   5.287   6.290   4.969  0.0010  0.3499 -0.2971
   77POPC   C1N 3981   5.283   0.062   4.865  0.1687  0.3122 -0.3442
   77POPC   C1O 3982   5.184   0.018   4.757 -0.4322  0.4286  0.1566
   77POPC   C1P 3983   5.180   0.126   4.650 -0.0792  0.3535  0.0681
   77POPC   C1Q 3984   5.102   0.075   4.528  0.7914  0.3404 -0.4944
   77POPC   C1R 3985   5.137   0.163   4.408 -0.0950  0.3742 -0.7336
   77POPC    CE 3986   5.256   5.480   5.682  0.1053  0.0862  0.5116
   77POPC    OG 3987   5.292   5.556   5.566 -0.3657 -0.3095  0.1014
   77POPC   C2A 3988   5.292   5.496   5.448 -1.0875  0.3148 -0.2213
   77POPC    OH 3989   5.259   5.378   5.437 -0.5838  0.1418  0.1284
   77POPC   C2B 3990   5.329   5.587   5.337 -0.0271 -0.0724 -0.1920
   77POPC   C2C 3991   5.219   5.619   5.236 -0.6232 -0.9973  0.1514
   77POPC   C2D 3992   5.248   5.751   5.165 -0.5966 -1.0629  0.0408
   77POPC   C2E 3993   5.150   5.789   5.054 -0.3181 -0.2684  0.0587
   77POPC   C2F 3994   5.196   5.902   4.960 -0.0618 -0.5057 -0.1020
   77POPC   C2G 3995   5.088   5.898   4.853  0.0695 -0.1197 -0.2486
   77POPC   C2H 3996   5.128   6.003   4.749  0.1670  0.0920  0.0032
   77POPC   C2I 3997   5.037   5.975   4.630  0.3126  0.1822 -0.1298
   77POPC   C2J 3998   4.900   6.038   4.654  0.0399 -0.3842 -0.1756
   77POPC   C2K 3999   4.816   6.044   4.526  0.5970 -0.1453 -0.5331
   77POPC   C2L 4000   4.743   5.911   4.507  0.0140  0.0830  0.0608
   77POPC   C2M 4001   4.650   5.907   4.385  0.3166  0.1652 -0.1722
   77POPC   C2N 4002   4.558   5.786   4.392 -0.1952  0.5563 -0.0853
   77POPC   C2O 4003   4.464   5.771   4.272 -0.4564  0.3361  0.1442
   77POPC   C2P 4004   4.542   5.748   4.142 -0.4959  0.1890  0.1463
   78POPC   CN1 4005   0.518   1.876   5.981  0.3125  0.1133 -0.6199
   78POPC   CN2 4006   0.348   1.858   5.815  0.7036 -0.1163  0.0915
   78POPC   CN3 4007   0.289   1.865   0.049 -0.5012 -0.3216 -0.2804
   78POPC   NTM 4008   0.387   1.817   5.951  0.1808 -0.0601  0.2624
   78POPC    CA 4009   0.418   1.673   5.950 -0.0773 -0.1140 -0.2171
   78POPC    CB 4010   0.304   1.577   5.986 -0.4816  0.4995  0.1508
   78POPC    OA 4011   0.213   1.578   5.877  0.0568 -0.5206 -0.3133
   78POPC     P 4012   0.059   1.536   5.900 -0.0268  0.0746  0.2211
   78POPC    OB 4013   0.006   1.643   5.988  0.2256 -0.0405  0.5145
   78POPC    OC 4014   0.058   1.391   5.930 -0.2557  0.0334  0.0212
   78POPC    OD 4015   0.014   1.565   5.748  0.2126  0.2307  0.1795
   78POPC    CC 4016   0.044   1.457   5.658 -0.2435  0.2220  0.0343
   78POPC    CD 4017   0.101   1.519   5.530 -0.2145  0.1268  0.0014
   78POPC    OE 4018   0.094   1.430   5.419  0.1065 -0.1408  0.1943
   78POPC   C1A 4019   0.098   1.481   5.296  0.2393  0.0620  0.2835
   78POPC    OF 4020   0.074   1.600   5.276 -0.0949 -0.0180  0.2028
   78POPC   C1B 4021   0.152   1.390   5.193  0.0995  0.0675  0.2047
   78POPC   C1C 4022   0.109   1.430   5.052  0.3667 -0.9669 -0.1750
   78POPC   C1D 4023   0.158   1.352   4.929  0.1647 -0.4804 -0.5655
   78POPC   C1E 4024   0.098   1.429   4.811 -0.1640 -0.0964 -0.1536
   78POPC   C1F 4025   0.161   1.400   4.674  0.1736 -0.5825  0.0996
   78POPC   C1G 4026   0.105   1.471   4.550 -0.1130 -0.1583  0.4658
   78POPC   C1H 4027   0.121   1.367   4.439 -0.5752  0.0379  0.2116
   78POPC   C1I 4028   0.091   1.432   4.304  0.1201 -0.1392 -0.0346
   78POPC   C1J 4029   0.017   1.361   4.219 -0.2666  0.1757  0.0381
   78POPC   C1K 4030   6.261   1.226   4.244  0.0745 -0.0013 -0.0168
   78POPC   C1L 4031   6.116   1.225   4.192  0.2589 -0.1696 -0.5376
   78POPC   C1M 4032   6.013   1.294   4.281  0.0372 -0.9102 -0.2087
   78POPC   C1N 4033   5.870   1.302   4.226 -0.1653 -0.6473  0.3475
   78POPC   C1O 4034   5.805   1.431   4.274  0.5708  0.1624 -0.7881
   78POPC   C1P 4035   5.682   1.445   4.184 -0.0548 -0.3820 -0.0324
   78POPC   C1Q 4036   5.740   1.540   4.079  0.2209 -0.3158  0.1750
   78POPC   C1R 4037   5.612   1.562   3.997  0.1665  0.1000  0.3679
   78POPC    CE 4038   0.246   1.548   5.570 -0.2556 -0.1962  0.3943
   78POPC    OG 4039   0.317   1.426   5.594  0.0498 -0.0552  0.2116
   78POPC   C2A 4040   0.406   1.381   5.507 -0.2079 -0.1187 -0.0233
   78POPC    OH 4041   0.439   1.439   5.404 -0.2233  0.3065  0.2106
   78POPC   C2B 4042   0.451   1.247   5.551 -0.1236 -0.2062 -0.3707
   78POPC   C2C 4043   0.452   1.142   5.439  0.0454 -0.1722 -0.4014
   78POPC   C2D 4044   0.314   1.090   5.400  0.0492 -0.5200  0.0420
   78POPC   C2E 4045   0.323   0.993   5.282 -0.4585 -0.3774 -0.1188
   78POPC   C2F 4046   0.187   0.947   5.229 -0.4637  0.0870 -0.5161
   78POPC   C2G 4047   0.208   0.828   5.135 -0.1643 -0.4320  0.1982
   78POPC   C2H 4048   0.080   0.786   5.062 -0.1688 -0.3712  0.1707
   78POPC   C2I 4049   0.056   0.890   4.952 -0.8718 -0.1703  0.5071
   78POPC   C2J 4050   6.237   0.849   4.881 -0.3972 -0.7496 -0.0369
   78POPC   C2K 4051   6.225   0.943   4.761 -0.5335 -0.2047  0.4009
   78POPC   C2L 4052   6.107   0.900   4.674 -0.3697  0.2280 -0.0445
   78POPC   C2M 4053   6.152   0.877   4.530  0.0725 -0.9651  0.2664
   78POPC   C2N 4054   6.027   0.842   4.449  0.1312 -0.4260 -0.0626
   78POPC   C2O 4055   6.071   0.789   4.312 -0.0783 -0.0990 -0.2578
   78POPC   C2P 4056   5.963   0.781   4.204  0.2664  0.0289 -0.6108
   79POPC   CN1 4057   4.588   1.825   5.580  0.5831  0.6595  0.3061
   79POPC   CN2 4058   4.603   1.871   5.341  0.8392  0.4102 -0.4643
   79POPC   CN3 4059   4.742   1.986   5.501  0.1872 -0.2959  0.4865
   79POPC   NTM 4060   4.609   1.928   5.477  0.1410  0.1344 -0.3150
   79POPC    CA 4061   4.523   2.046   5.497  0.1606  0.1220 -0.1606
   79POPC    CB 4062   4.373   2.026   5.472  0.2178 -0.1729 -0.2745
   79POPC    OA 4063   4.310   1.907   5.522  0.0289  0.2530  0.5244
   79POPC     P 4064   4.159   1.951   5.555 -0.2696 -0.3888  0.0454
   79POPC    OB 4065   4.160   2.083   5.623 -0.4429 -0.5186  0.3030
   79POPC    OC 4066   4.079   1.837   5.604  0.4213 -0.8206  0.1755
   79POPC    OD 4067   4.099   1.979   5.408 -0.1400  0.0232  0.0695
   79POPC    CC 4068   4.077   1.859   5.335 -0.4892  0.2327 -0.1757
   79POPC    CD 4069   4.162   1.844   5.208 -0.2681  0.1469 -0.0201
   79POPC    OE 4070   4.166   1.963   5.128  0.0667 -0.0718 -0.3294
   79POPC   C1A 4071   4.281   2.029   5.119  0.0242  0.0009 -0.3339
   79POPC    OF 4072   4.386   1.977   5.158 -0.1283  0.0084  0.0953
   79POPC   C1B 4073   4.282   2.146   5.028  0.2018  0.4264  0.2049
   79POPC   C1C 4074   4.309   2.108   4.882 -0.6706 -0.4436  0.2545
   79POPC   C1D 4075   4.291   2.223   4.783  0.4005 -0.2912  0.2255
   79POPC   C1E 4076   4.310   2.182   4.637  0.0784  1.0896 -0.2207
   79POPC   C1F 4077   4.456   2.152   4.600 -0.2230 -0.3644 -0.3127
   79POPC   C1G 4078   4.437   2.080   4.467  0.0043  0.1232 -0.6111
   79POPC   C1H 4079   4.405   2.176   4.352 -0.2350  0.4747 -0.2552
   79POPC   C1I 4080   4.362   2.094   4.229  0.0361 -0.1658  0.0696
   79POPC   C1J 4081   4.356   2.157   4.112 -0.6100 -0.0349  0.1686
   79POPC   C1K 4082   4.399   2.303   4.124  0.2305 -0.2408 -0.2224
   79POPC   C1L 4083   4.307   2.388   4.035  0.6682  0.0691 -0.3848
   79POPC   C1M 4084   4.343   2.536   4.039  0.3138  0.1441  0.1587
   79POPC   C1N 4085   4.479   2.575   3.980  0.7429 -0.7863  0.5218
   79POPC   C1O 4086   4.530   2.709   4.033  0.7328 -0.7121  0.3421
   79POPC   C1P 4087   4.677   2.745   4.010  0.4043  0.3105 -0.2559
   79POPC   C1Q 4088   4.694   2.769   3.860 -0.3180 -0.2232 -0.4329
   79POPC   C1R 4089   4.836   2.820   3.835 -0.2489 -0.1308  0.1412
   79POPC    CE 4090   4.121   1.727   5.118  0.2362  0.3671 -0.5408
   79POPC    OG 4091   4.084   1.613   5.195  0.4451  0.1935 -0.6960
   79POPC   C2A 4092   4.038   1.509   5.126  0.1358 -0.3817  0.3592
   79POPC    OH 4093   4.022   1.514   5.004  0.5657 -0.6136  0.2892
   79POPC   C2B 4094   3.990   1.399   5.214 -0.0679 -0.4369  0.1802
   79POPC   C2C 4095   3.902   1.308   5.129 -0.0998 -0.1661 -0.0823
   79POPC   C2D 4096   3.760   1.364   5.120  0.0117  0.0661 -0.4030
   79POPC   C2E 4097   3.677   1.265   5.038 -0.5572  0.3662 -0.1991
   79POPC   C2F 4098   3.727   1.251   4.894 -0.0358 -0.0223  0.0117
   79POPC   C2G 4099   3.656   1.148   4.806  0.3274 -0.3197  0.0688
   79POPC   C2H 4100   3.736   1.131   4.676  0.2969  0.4191 -0.0520
   79POPC   C2I 4101   3.669   1.044   4.569  0.4230  0.3409 -0.0674
   79POPC   C2J 4102   3.744   1.061   4.436  0.0961  0.5391 -0.2285
   79POPC   C2K 4103   3.662   0.988   4.330  0.3835  0.0186 -0.0975
   79POPC   C2L 4104   3.729   0.999   4.194 -0.5541  0.2439 -0.5525
   79POPC   C2M 4105   3.650   0.929   4.083 -0.4214 -0.1902 -0.3777
   79POPC   C2N 4106   3.661   0.777   4.094  0.0112 -0.1460 -0.1671
   79POPC   C2O 4107   3.529   0.717   4.045 -0.1230 -0.3830  0.4748
   79POPC   C2P 4108   3.526   0.708   3.892  0.5863  0.6530  0.3943
   80POPC   CN1 4109   3.173   1.222   5.724 -0.3768  0.3044 -0.3025
   80POPC   CN2 4110   3.012   1.173   5.563  0.0749  0.1937 -0.6049
   80POPC   CN3 4111   3.052   1.407   5.632  0.0405 -0.0331 -0.6028
   80POPC   NTM 4112   3.042   1.266   5.673 -0.4359  0.0685 -0.3530
   80POPC    CA 4113   2.951   1.250   5.787  0.3477  0.2159  0.3075
   80POPC    CB 4114   2.805   1.291   5.766  0.3370 -0.0193 -0.0833
   80POPC    OA 4115   2.732   1.237   5.655  0.2135  0.2081 -0.1144
   80POPC     P 4116   2.583   1.205   5.706  0.2612  0.1115 -0.0351
   80POPC    OB 4117   2.565   1.193   5.853 -0.3886  0.0692 -0.1159
   80POPC    OC 4118   2.513   1.100   5.629  0.0364 -0.4137  0.8651
   80POPC    OD 4119   2.511   1.342   5.663  0.1694 -0.0075 -0.2603
   80POPC    CC 4120   2.476   1.349   5.524  0.3150 -0.6623 -0.3342
   80POPC    CD 4121   2.538   1.468   5.450  0.4016 -0.6722 -0.2778
   80POPC    OE 4122   2.446   1.527   5.357  0.9027 -0.0990 -0.4145
   80POPC   C1A 4123   2.465   1.652   5.315  0.5036  0.2550  0.4381
   80POPC    OF 4124   2.556   1.720   5.361  1.0030 -0.0582 -0.0755
   80POPC   C1B 4125   2.386   1.681   5.194  0.5956 -0.3520  0.2278
   80POPC   C1C 4126   2.476   1.711   5.074 -0.2640  0.7934 -0.1497
   80POPC   C1D 4127   2.503   1.582   4.997 -0.2689  0.2348  0.7686
   80POPC   C1E 4128   2.378   1.536   4.921  0.2150  0.2364 -0.0424
   80POPC   C1F 4129   2.363   1.618   4.793 -0.1734  0.0964 -0.0874
   80POPC   C1G 4130   2.294   1.548   4.676  0.0534 -0.0433 -0.1375
   80POPC   C1H 4131   2.333   1.597   4.537  0.3168 -0.2767 -0.1460
   80POPC   C1I 4132   2.305   1.746   4.515  0.0074 -0.3460 -0.2204
   80POPC   C1J 4133   2.361   1.829   4.428 -0.0774  0.2383  0.2780
   80POPC   C1K 4134   2.458   1.782   4.320 -0.5361 -0.0458 -0.0115
   80POPC   C1L 4135   2.545   1.892   4.260  0.3411 -0.5453  0.3263
   80POPC   C1M 4136   2.633   1.842   4.145 -0.1274  0.0816 -0.3152
   80POPC   C1N 4137   2.722   1.957   4.097  0.0351  0.1503  0.1464
   80POPC   C1O 4138   2.801   1.893   3.983  0.3947 -0.0045  0.4763
   80POPC   C1P 4139   2.907   1.981   3.918 -0.3667  0.2433 -0.4505
   80POPC   C1Q 4140   2.842   2.063   3.806 -0.1831  0.4515 -0.4062
   80POPC   C1R 4141   2.929   2.083   3.681 -0.1969  0.0779 -0.4760
   80POPC    CE 4142   2.673   1.426   5.391  0.3828 -0.6475 -0.3383
   80POPC    OG 4143   2.671   1.328   5.287 -0.2858 -0.6181 -0.3579
   80POPC   C2A 4144   2.792   1.307   5.236  0.0731  0.2951  0.1066
   80POPC    OH 4145   2.894   1.338   5.299  0.0751 -0.4078  0.4540
   80POPC   C2B 4146   2.797   1.249   5.100  0.0388  0.1494  0.1681
   80POPC   C2C 4147   2.781   1.345   4.982 -1.0659 -0.1430  0.0739
   80POPC   C2D 4148   2.761   1.277   4.847 -0.4827  0.2816 -0.2297
   80POPC   C2E 4149   2.684   1.358   4.742 -0.3652  0.8627  0.1311
   80POPC   C2F 4150   2.718   1.286   4.612  0.3278  0.5781  0.4668
   80POPC   C2G 4151   2.632   1.338   4.497  0.0866 -0.6292  0.0840
   80POPC   C2H 4152   2.672   1.270   4.366 -0.3664 -0.2648 -0.2459
   80POPC   C2I 4153   2.629   1.339   4.236 -0.2819 -0.1799 -0.2287
   80POPC   C2J 4154   2.483   1.300   4.211 -0.4557  0.6437 -0.5383
   80POPC   C2K 4155   2.412   1.363   4.092 -0.0902  0.9039 -0.6168
   80POPC   C2L 4156   2.281   1.305   4.038  0.0375  0.2101 -0.1867
   80POPC   C2M 4157   2.171   1.312   4.144  0.2914  0.7701  0.0505
   80POPC   C2N 4158   2.028   1.307   4.090  0.3550  0.4421 -0.0922
   80POPC   C2O 4159   1.985   1.176   4.024 -0.1051  0.5812 -0.0772
   80POPC   C2P 4160   1.836   1.152   4.002 -0.0063 -0.2625  0.1067
   81POPC   CN1 4161   3.387   2.686   5.478 -0.3110 -0.9040 -0.0754
   81POPC   CN2 4162   3.558   2.840   5.418 -0.9985 -0.1860  0.2008
   81POPC   CN3 4163   3.596   2.607   5.385 -0.3736 -0.1504  0.4338
   81POPC   NTM 4164   3.533   2.706   5.473 -0.3850 -0.1927  0.4728
   81POPC    CA 4165   3.584   2.697   5.611 -0.1669 -0.1569  0.3952
   81POPC    CB 4166   3.729   2.732   5.645 -0.0950 -0.0973  0.0276
   81POPC    OA 4167   3.834   2.644   5.603 -0.0910 -0.1752  0.2022
   81POPC     P 4168   3.977   2.711   5.632  0.0862 -0.2806 -0.4128
   81POPC    OB 4169   4.092   2.624   5.596  0.0164 -0.5468  0.0030
   81POPC    OC 4170   3.973   2.766   5.769 -0.6033  0.0748 -0.5711
   81POPC    OD 4171   3.962   2.827   5.521  0.2841 -0.0332 -0.1821
   81POPC    CC 4172   3.987   2.782   5.388 -0.6055 -0.6775 -0.1404
   81POPC    CD 4173   3.967   2.887   5.278 -0.0418 -0.3541  0.0633
   81POPC    OE 4174   3.945   2.834   5.147  0.0016  0.0595 -0.1118
   81POPC   C1A 4175   3.824   2.789   5.115 -0.0743  0.3018 -0.1728
   81POPC    OF 4176   3.741   2.767   5.202 -0.4601  0.3446 -0.5282
   81POPC   C1B 4177   3.804   2.740   4.977  0.1778 -0.7054  0.1352
   81POPC   C1C 4178   3.850   2.850   4.881  0.0326 -0.2138  0.6211
   81POPC   C1D 4179   3.831   2.807   4.735 -0.0222  0.6722  0.3621
   81POPC   C1E 4180   3.899   2.906   4.640 -0.0579  0.2279 -0.1311
   81POPC   C1F 4181   3.879   2.882   4.490  0.2492 -0.0674 -0.1264
   81POPC   C1G 4182   3.944   2.751   4.446  0.7692  0.1172  0.0837
   81POPC   C1H 4183   3.942   2.721   4.296  0.5892 -0.3874  0.1855
   81POPC   C1I 4184   4.017   2.820   4.207 -0.1731 -0.1823 -0.2378
   81POPC   C1J 4185   3.968   2.862   4.091  0.1737 -0.4728 -0.4921
   81POPC   C1K 4186   3.825   2.822   4.053  0.0025 -0.4870  0.1621
   81POPC   C1L 4187   3.760   2.889   3.932 -0.0602  0.0108  0.4671
   81POPC   C1M 4188   3.800   2.824   3.800 -0.1415  0.7787  0.0570
   81POPC   C1N 4189   3.754   2.895   3.673 -0.0841 -0.0628 -0.4466
   81POPC   C1O 4190   3.790   2.835   3.537 -0.0346 -0.0260 -0.4502
   81POPC   C1P 4191   3.696   2.725   3.487  0.2768 -0.2861 -0.4700
   81POPC   C1Q 4192   3.575   2.790   3.420  0.0653  0.2216  0.3896
   81POPC   C1R 4193   3.463   2.687   3.416  0.2298  0.0347  0.5722
   81POPC    CE 4194   4.081   2.986   5.303 -0.2016 -0.1801  0.1029
   81POPC    OG 4195   4.216   2.940   5.290 -0.1486  0.0930 -0.3329
   81POPC   C2A 4196   4.317   2.998   5.353 -0.1391  0.1160 -0.3691
   81POPC    OH 4197   4.300   3.043   5.467 -0.0282  0.2267 -0.3962
   81POPC   C2B 4198   4.451   2.966   5.301 -0.1333 -0.4147 -0.0418
   81POPC   C2C 4199   4.496   3.062   5.190 -0.5645  0.0136  0.1501
   81POPC   C2D 4200   4.461   3.005   5.052 -0.2144  0.8505 -0.2907
   81POPC   C2E 4201   4.521   3.095   4.944 -0.3736  0.6159 -0.5761
   81POPC   C2F 4202   4.480   3.042   4.806 -0.5458  0.3727 -0.4324
   81POPC   C2G 4203   4.526   3.137   4.696  0.4908  0.0308 -0.3010
   81POPC   C2H 4204   4.505   3.081   4.555  0.4546 -0.5116 -0.0833
   81POPC   C2I 4205   4.539   3.191   4.454  0.1068 -0.4321 -0.1154
   81POPC   C2J 4206   4.534   3.125   4.316  0.8540 -0.1001 -0.3053
   81POPC   C2K 4207   4.394   3.079   4.276  0.6133  0.1220  0.2779
   81POPC   C2L 4208   4.355   3.024   4.138  0.5967 -0.5445  0.5464
   81POPC   C2M 4209   4.399   3.120   4.027 -0.1071 -0.2487  0.5155
   81POPC   C2N 4210   4.300   3.229   3.988  0.1125 -0.3974 -0.4706
   81POPC   C2O 4211   4.185   3.174   3.902 -0.7238 -0.0057  0.3719
   81POPC   C2P 4212   4.076   3.278   3.877 -0.4887  0.2827  0.5507
   82POPC   CN1 4213   6.250   1.088   0.080 -0.3613 -0.2953  0.4548
   82POPC   CN2 4214   0.097   1.048   5.910  0.1149 -0.4104 -0.1385
   82POPC   CN3 4215   6.174   0.950   5.911  0.3056  0.2649 -0.3492
   82POPC   NTM 4216   6.296   0.986   5.984  0.0283  0.1298  0.1883
   82POPC    CA 4217   0.037   0.883   0.075  0.4385 -0.2112 -0.4214
   82POPC    CB 4218   0.051   0.736   0.035  0.1072 -0.4377  0.2728
   82POPC    OA 4219   0.161   0.707   5.948  0.3596 -0.3098  0.5492
   82POPC     P 4220   0.160   0.555   5.895 -0.1930 -0.2531  0.3879
   82POPC    OB 4221   0.095   0.471   5.998 -0.2782 -0.4856  0.1442
   82POPC    OC 4222   0.289   0.536   5.823 -0.2568 -0.4246  0.3172
   82POPC    OD 4223   0.045   0.572   5.784  0.0292 -0.7627  0.0728
   82POPC    CC 4224   0.065   0.593   5.644  0.5877  0.3952  0.3163
   82POPC    CD 4225   0.092   0.739   5.607 -0.1185  0.4823  0.1226
   82POPC    OE 4226   0.008   0.790   5.504 -0.1677  0.0049 -0.0753
   82POPC   C1A 4227   6.267   0.912   5.524  0.1937  0.0815  0.4082
   82POPC    OF 4228   6.306   0.981   5.617 -0.2171  0.2346  0.4707
   82POPC   C1B 4229   6.181   0.961   5.413  0.5789  0.1425  0.1335
   82POPC   C1C 4230   6.126   1.102   5.436  0.0647  0.0214 -0.3507
   82POPC   C1D 4231   6.062   1.147   5.304 -0.5173 -0.4531 -0.2376
   82POPC   C1E 4232   6.031   1.295   5.328  0.2123 -0.3887  0.3673
   82POPC   C1F 4233   5.941   1.347   5.215  0.7029  0.0269  0.1605
   82POPC   C1G 4234   6.004   1.331   5.077 -0.3138 -0.2954 -0.2809
   82POPC   C1H 4235   5.910   1.362   4.960 -0.3254  0.1425 -0.1567
   82POPC   C1I 4236   5.996   1.355   4.834 -0.1479 -0.7425  0.0045
   82POPC   C1J 4237   5.934   1.329   4.719 -0.0605 -0.4561 -0.1090
   82POPC   C1K 4238   5.781   1.317   4.711 -0.1044 -0.0026 -0.0133
   82POPC   C1L 4239   5.708   1.442   4.663 -0.1303 -0.0726 -0.1548
   82POPC   C1M 4240   5.557   1.422   4.650 -0.1321 -0.3329  0.2441
   82POPC   C1N 4241   5.493   1.531   4.562  0.1145  0.1509  0.6610
   82POPC   C1O 4242   5.342   1.517   4.579 -0.0068  0.2141 -0.3516
   82POPC   C1P 4243   5.251   1.593   4.482 -0.5138  0.3028  0.1895
   82POPC   C1Q 4244   5.276   1.577   4.332  0.0070 -0.0941  0.3160
   82POPC   C1R 4245   5.150   1.546   4.251  0.0030  0.0009  0.2848
   82POPC    CE 4246   0.244   0.762   5.615  0.0095 -0.4961  0.5793
   82POPC    OG 4247   0.318   0.671   5.534 -0.0079 -0.2332  0.2690
   82POPC   C2A 4248   0.449   0.669   5.555  0.0263 -0.1514  0.0675
   82POPC    OH 4249   0.507   0.773   5.587  0.2595 -0.3320  0.2338
   82POPC   C2B 4250   0.514   0.553   5.490  0.1282 -0.2055  0.2642
   82POPC   C2C 4251   0.572   0.598   5.355 -0.2918  0.0092  0.1536
   82POPC   C2D 4252   0.510   0.492   5.264 -0.0826  0.0952 -0.0872
   82POPC   C2E 4253   0.537   0.516   5.115  0.3398 -0.2165 -0.0645
   82POPC   C2F 4254   0.441   0.422   5.042  0.1828 -0.1415  0.0442
   82POPC   C2G 4255   0.452   0.440   4.890 -0.1932  0.2233  0.0593
   82POPC   C2H 4256   0.358   0.338   4.826 -0.2880  0.1845  0.2588
   82POPC   C2I 4257   0.220   0.402   4.804 -0.3041 -0.0265 -0.2810
   82POPC   C2J 4258   0.231   0.526   4.717  0.2478  0.1381  0.0161
   82POPC   C2K 4259   0.109   0.562   4.632  0.1948 -0.2707 -0.0818
   82POPC   C2L 4260   0.074   0.458   4.525 -0.2756  0.0058 -0.2014
   82POPC   C2M 4261   6.240   0.476   4.477 -0.3811  0.3404  0.2379
   82POPC   C2N 4262   6.188   0.345   4.419  0.3469 -0.0769  0.5256
   82POPC   C2O 4263   6.251   0.310   4.284  0.1545 -0.4804  0.5399
   82POPC   C2P 4264   6.200   0.174   4.233 -0.5470 -0.1553  0.3597
   83POPC   CN1 4265   1.669   4.277   5.684 -0.6439 -0.0517 -0.0321
   83POPC   CN2 4266   1.627   4.408   5.885  0.0313 -0.5222  0.2936
   83POPC   CN3 4267   1.841   4.310   5.851  0.3865 -0.7563 -1.0412
   83POPC   NTM 4268   1.697   4.293   5.827  0.1677 -0.2110 -0.1696
   83POPC    CA 4269   1.650   4.178   5.906  0.0557  0.0090  0.0861
   83POPC    CB 4270   1.700   4.034   5.889  0.2408  0.0528  0.2559
   83POPC    OA 4271   1.839   4.018   5.921  0.3050  0.0198 -0.0351
   83POPC     P 4272   1.860   3.861   5.949 -0.0043 -0.0128  0.0286
   83POPC    OB 4273   1.746   3.810   0.028 -0.0212  0.1714  0.1229
   83POPC    OC 4274   1.996   3.841   0.004 -0.1464 -0.5889  0.1749
   83POPC    OD 4275   1.848   3.809   5.797  0.0389 -0.1386  0.0684
   83POPC    CC 4276   1.973   3.821   5.728  0.0511  0.0381  0.1214
   83POPC    CD 4277   2.041   3.945   5.671  0.0078  0.2757  0.5757
   83POPC    OE 4278   1.988   3.980   5.543  1.0706 -0.1055  0.0135
   83POPC   C1A 4279   1.968   4.105   5.503  0.7760 -0.1712 -0.0462
   83POPC    OF 4280   1.995   4.199   5.577  0.6025 -0.1443 -0.0159
   83POPC   C1B 4281   1.899   4.128   5.373 -0.0550 -0.2219  0.3818
   83POPC   C1C 4282   2.006   4.149   5.266 -0.2736  0.4601  0.2918
   83POPC   C1D 4283   1.949   4.138   5.124 -0.0685 -0.1941  0.2529
   83POPC   C1E 4284   1.875   4.006   5.105 -0.3334 -0.0151  0.0317
   83POPC   C1F 4285   1.841   3.981   4.958  0.0356 -0.4833  0.0201
   83POPC   C1G 4286   1.777   3.843   4.946  0.0100 -0.4823  0.1478
   83POPC   C1H 4287   1.788   3.808   4.798 -0.1181 -0.0307  0.0310
   83POPC   C1I 4288   1.709   3.889   4.696  0.4086  0.1879 -0.2104
   83POPC   C1J 4289   1.752   3.894   4.570 -0.4712 -0.1138 -0.5303
   83POPC   C1K 4290   1.867   3.816   4.508 -0.2150  0.1813 -0.4294
   83POPC   C1L 4291   1.859   3.815   4.355 -0.5907  0.1523 -0.4101
   83POPC   C1M 4292   1.925   3.937   4.290 -0.8038  0.4369 -0.0924
   83POPC   C1N 4293   1.877   3.955   4.146 -0.1083  0.3873 -0.3305
   83POPC   C1O 4294   1.963   3.890   4.037  0.2728  0.2130  0.0712
   83POPC   C1P 4295   1.917   3.921   3.895 -0.2133 -0.2089  0.1338
   83POPC   C1Q 4296   2.005   3.852   3.791  0.1253  0.4707 -0.0349
   83POPC   C1R 4297   1.963   3.711   3.751  0.1321  0.3901  0.2430
   83POPC    CE 4298   2.193   3.921   5.673 -0.0648 -0.3166 -0.2139
   83POPC    OG 4299   2.230   3.814   5.587 -0.5052 -0.3062 -0.4203
   83POPC   C2A 4300   2.317   3.842   5.491 -0.5792  0.1081 -0.3691
   83POPC    OH 4301   2.348   3.958   5.465 -0.3039  0.1746  0.2550
   83POPC   C2B 4302   2.365   3.717   5.426 -0.1459  0.2014 -0.2329
   83POPC   C2C 4303   2.274   3.666   5.314 -0.5463  0.0906  0.1402
   83POPC   C2D 4304   2.268   3.770   5.202  0.2313 -0.1377 -0.1151
   83POPC   C2E 4305   2.156   3.718   5.112 -0.0603 -0.5483  0.4827
   83POPC   C2F 4306   2.223   3.621   5.015  0.0437  0.5351 -0.5458
   83POPC   C2G 4307   2.113   3.571   4.921  0.3175  0.6822 -0.9509
   83POPC   C2H 4308   2.181   3.512   4.798  0.5745 -0.7991 -0.1251
   83POPC   C2I 4309   2.083   3.446   4.701 -0.1643  0.3919 -0.2106
   83POPC   C2J 4310   2.162   3.371   4.593 -0.0082  0.0183  0.1634
   83POPC   C2K 4311   2.079   3.290   4.492  0.4450  0.0087 -0.2021
   83POPC   C2L 4312   2.175   3.246   4.381  0.3193 -0.7101 -0.0316
   83POPC   C2M 4313   2.109   3.204   4.250  0.4314  0.1030 -0.3571
   83POPC   C2N 4314   2.027   3.311   4.177  0.0008 -0.2053 -0.3298
   83POPC   C2O 4315   1.944   3.256   4.062 -0.1497 -0.1354 -0.2552
   83POPC   C2P 4316   1.891   3.379   3.989 -0.3337  0.2163  0.4693
   84POPC   CN1 4317   0.375   0.279   0.205  0.2445 -0.1818  0.3096
   84POPC   CN2 4318   0.478   0.489   0.123 -0.0601 -0.0527 -0.1937
   84POPC   CN3 4319   0.464   0.297   5.983  0.1605  0.5204 -0.2018
   84POPC   NTM 4320   0.479   0.342   0.122 -0.0651 -0.0531  0.0124
   84POPC    CA 4321   0.607   0.297   0.179 -0.2871  0.0758  0.6309
   84POPC    CB 4322   0.638   0.149   0.204 -0.2640 -0.0417 -0.0493
   84POPC    OA 4323   0.630   0.073   0.084  0.2974 -0.0067 -0.1116
   84POPC     P 4324   0.563   6.269   0.110  0.0336  0.1908  0.3069
   84POPC    OB 4325   0.567   6.230   0.253  0.0029  0.0259  0.2635
   84POPC    OC 4326   0.615   6.168   0.015 -0.3421 -0.0554  0.3590
   84POPC    OD 4327   0.412   6.308   0.068  0.0895  0.3617  0.2641
   84POPC    CC 4328   0.367   6.242   5.949 -0.0146  0.1960  0.3939
   84POPC    CD 4329   0.215   6.246   5.940 -0.0136  0.0429  0.3135
   84POPC    OE 4330   0.153   6.143   5.862  0.1404  0.2069 -0.0237
   84POPC   C1A 4331   0.111   6.032   5.922 -0.0143  0.2318 -0.0873
   84POPC    OF 4332   0.176   5.981   0.012 -0.1834  0.2195  0.0281
   84POPC   C1B 4333   0.004   5.961   5.848  0.4485 -0.8749  0.2832
   84POPC   C1C 4334   6.286   5.829   5.920 -0.5682 -0.5808  0.4496
   84POPC   C1D 4335   6.191   5.737   5.844 -0.7626  0.0986 -0.1390
   84POPC   C1E 4336   6.118   5.639   5.936  0.1721  0.1295  0.6546
   84POPC   C1F 4337   6.002   5.709   0.007 -0.3888 -0.4748  0.3487
   84POPC   C1G 4338   6.047   5.755   0.146 -0.1135  0.0506  0.0916
   84POPC   C1H 4339   5.943   5.836   0.224 -0.2349  0.3919 -0.4196
   84POPC   C1I 4340   6.009   5.947   0.307 -0.4573  0.1712  0.0538
   84POPC   C1J 4341   6.016   6.071   0.260  0.3945  0.2513  0.3843
   84POPC   C1K 4342   5.952   6.113   0.128  0.3596  0.2805  0.4102
   84POPC   C1L 4343   6.052   6.181   0.034 -0.1620 -0.1566 -0.4786
   84POPC   C1M 4344   5.989   6.238   5.907  0.0222  0.2833 -0.3765
   84POPC   C1N 4345   5.990   6.134   5.794 -0.2924  0.0043 -0.1244
   84POPC   C1O 4346   5.936   6.203   5.669  0.1164  0.0678 -0.2670
   84POPC   C1P 4347   5.970   6.132   5.538  0.0847  0.2993 -0.3999
   84POPC   C1Q 4348   5.913   6.219   5.425 -0.0950  0.7280  0.0191
   84POPC   C1R 4349   5.993   0.007   5.401  0.3213  0.3664 -0.5532
   84POPC    CE 4350   0.174   0.046   5.896  0.2359 -0.0593 -0.2438
   84POPC    OG 4351   0.222   0.103   5.773  0.6110  0.7170  0.2523
   84POPC   C2A 4352   0.150   0.194   5.709 -0.1286 -0.3741 -0.4916
   84POPC    OH 4353   0.041   0.229   5.754  0.0640 -0.3277 -0.0591
   84POPC   C2B 4354   0.210   0.258   5.590  0.3116  0.2967  0.0869
   84POPC   C2C 4355   0.152   0.201   5.460 -0.9277  0.4757  0.5425
   84POPC   C2D 4356   0.206   0.278   5.339 -0.4580 -0.2989  0.2497
   84POPC   C2E 4357   0.135   0.230   5.212 -0.1289  0.4741 -0.2302
   84POPC   C2F 4358   0.187   0.096   5.160 -0.4772  0.2034  0.1130
   84POPC   C2G 4359   0.169   0.075   5.009  0.6748  0.0051 -0.0031
   84POPC   C2H 4360   0.246   6.297   4.949 -0.3321 -0.5742 -0.1792
   84POPC   C2I 4361   0.201   6.161   5.001 -0.5549 -0.5046 -0.1886
   84POPC   C2J 4362   0.306   6.049   4.995 -0.1716 -0.1554 -0.0642
   84POPC   C2K 4363   0.443   6.069   5.060 -0.2094  0.4218 -0.1543
   84POPC   C2L 4364   0.537   5.956   5.020  0.3295  0.7261  0.2412
   84POPC   C2M 4365   0.652   5.986   4.923  0.0724  0.1893 -0.2385
   84POPC   C2N 4366   0.740   5.864   4.897 -0.2125 -0.0190 -0.2264
   84POPC   C2O 4367   0.865   5.905   4.818 -0.0448 -0.4173 -0.1715
   84POPC   C2P 4368   0.963   5.952   4.926 -0.0545 -0.9348  0.0626
   85POPC   CN1 4369   0.642   4.307   5.846 -0.2018  0.2525 -0.3863
   85POPC   CN2 4370   0.797   4.317   5.658  0.2576 -0.5628 -0.2816
   85POPC   CN3 4371   0.808   4.138   5.820 -0.3752  0.2998  0.2990
   85POPC   NTM 4372   0.779   4.280   5.799 -0.0915  0.3008 -0.0970
   85POPC    CA 4373   0.852   4.378   5.881 -0.4241  0.2370  0.2797
   85POPC    CB 4374   1.005   4.384   5.886 -0.4016 -0.1728  0.1573
   85POPC    OA 4375   1.076   4.265   5.921  0.2855 -0.0045 -0.6401
   85POPC     P 4376   1.237   4.272   5.911  0.3458 -0.1131  0.1775
   85POPC    OB 4377   1.312   4.291   0.037 -0.4082 -0.0602  0.6237
   85POPC    OC 4378   1.261   4.375   5.807 -0.6431 -0.0997 -0.0454
   85POPC    OD 4379   1.270   4.136   5.832  0.5261  0.2817 -0.4422
   85POPC    CC 4380   1.188   4.138   5.715 -0.1910  0.2748  0.0474
   85POPC    CD 4381   1.255   4.086   5.587 -0.0600  0.1237  0.1764
   85POPC    OE 4382   1.186   4.133   5.471 -0.0030 -0.0926  0.0545
   85POPC   C1A 4383   1.062   4.102   5.436  0.1715 -0.1544 -0.5201
   85POPC    OF 4384   0.989   4.053   5.522 -0.1894  0.3226 -0.5498
   85POPC   C1B 4385   1.025   4.147   5.300  0.4770  0.2324 -0.4772
   85POPC   C1C 4386   0.954   4.283   5.300 -0.7746 -0.4109 -0.1657
   85POPC   C1D 4387   0.915   4.339   5.163  0.1248  0.3691 -0.1113
   85POPC   C1E 4388   1.042   4.384   5.090  0.4046 -0.1399  0.0573
   85POPC   C1F 4389   1.004   4.449   4.957 -0.4063 -0.2682  0.2156
   85POPC   C1G 4390   0.938   4.586   4.977  0.0681  0.0616 -0.4283
   85POPC   C1H 4391   0.883   4.646   4.847  0.1812 -0.0458 -0.5260
   85POPC   C1I 4392   0.765   4.574   4.781 -0.0847  0.1334 -0.2459
   85POPC   C1J 4393   0.746   4.581   4.650  0.0720  0.6538 -0.2412
   85POPC   C1K 4394   0.853   4.635   4.554  0.1158  0.3121 -0.3864
   85POPC   C1L 4395   0.851   4.560   4.421 -0.2293 -0.2465 -0.0697
   85POPC   C1M 4396   0.988   4.599   4.365 -0.0117 -0.9748 -0.0622
   85POPC   C1N 4397   1.019   4.532   4.231 -0.1776  0.3730 -0.7929
   85POPC   C1O 4398   1.048   4.383   4.244 -0.0429  0.4448 -0.2435
   85POPC   C1P 4399   1.096   4.312   4.117  0.2806  0.0927  0.0730
   85POPC   C1Q 4400   1.214   4.377   4.045 -0.0124  0.0544 -0.4429
   85POPC   C1R 4401   1.260   4.292   3.926 -0.0756 -0.4116 -0.1346
   85POPC    CE 4402   1.289   3.938   5.605 -0.1050  0.0673 -0.2096
   85POPC    OG 4403   1.342   3.866   5.493 -0.0704 -0.1521 -0.0525
   85POPC   C2A 4404   1.455   3.905   5.433 -0.3482  0.4215 -0.2126
   85POPC    OH 4405   1.537   3.985   5.477 -0.3379  0.2095  0.1663
   85POPC   C2B 4406   1.470   3.835   5.304 -0.2491 -0.2291  0.1452
   85POPC   C2C 4407   1.366   3.872   5.198 -0.0972 -0.0221  0.0658
   85POPC   C2D 4408   1.396   3.782   5.079 -0.1398 -0.1199  0.1282
   85POPC   C2E 4409   1.337   3.841   4.951  0.2883 -0.1505 -0.0853
   85POPC   C2F 4410   1.338   3.748   4.829 -0.6248  0.2151 -0.3741
   85POPC   C2G 4411   1.215   3.657   4.826 -0.5993  0.1529  0.2783
   85POPC   C2H 4412   1.196   3.591   4.689 -0.2644  0.4994  0.0644
   85POPC   C2I 4413   1.109   3.466   4.700  0.3890  0.0405  0.0311
   85POPC   C2J 4414   1.090   3.413   4.557 -0.0472  0.0899  0.0695
   85POPC   C2K 4415   1.053   3.265   4.558 -0.2252  0.1360  0.4518
   85POPC   C2L 4416   1.101   3.189   4.434 -0.2309  0.0808  0.4833
   85POPC   C2M 4417   1.040   3.224   4.299 -0.3114 -0.7493  0.3036
   85POPC   C2N 4418   0.888   3.201   4.301 -0.3764 -0.4061 -0.3606
   85POPC   C2O 4419   0.864   3.052   4.281  0.0499 -0.4330 -0.6837
   85POPC   C2P 4420   0.714   3.023   4.270 -0.0461 -0.1627 -0.1252
   86POPC   CN1 4421   5.773   5.109   0.088 -0.3644 -0.2731 -0.3454
   86POPC   CN2 4422   5.951   5.246   0.015  0.5312  0.2075  0.0666
   86POPC   CN3 4423   5.812   5.153   5.860  0.1511 -0.4163 -0.3224
   86POPC   NTM 4424   5.879   5.122   5.987 -0.0725  0.5558  0.0502
   86POPC    CA 4425   5.947   4.992   5.971  0.2076  0.6910  0.1312
   86POPC    CB 4426   6.097   4.978   5.944  0.1488  0.6748 -0.1903
   86POPC    OA 4427   6.195   5.050   0.019 -0.0693  0.0312  0.7225
   86POPC     P 4428   0.032   4.988   6.000 -0.2719 -0.1249 -0.3703
   86POPC    OB 4429   0.033   4.840   5.998  0.2881 -0.1390  0.4031
   86POPC    OC 4430   0.126   5.060   0.088 -0.6578 -0.3636  0.2420
   86POPC    OD 4431   0.069   5.025   5.847  0.7972  0.2421 -0.0343
   86POPC    CC 4432   0.123   5.154   5.817  0.3982  0.3531 -0.2780
   86POPC    CD 4433   0.020   5.262   5.784  0.1424  0.2257  0.0980
   86POPC    OE 4434   6.260   5.228   5.664  0.0773  0.6712  0.0104
   86POPC   C1A 4435   6.133   5.269   5.652 -0.3203 -0.6014 -0.2052
   86POPC    OF 4436   6.087   5.342   5.739  0.4454 -0.4395  0.0779
   86POPC   C1B 4437   6.065   5.232   5.526  0.2194 -0.7317 -0.4629
   86POPC   C1C 4438   5.935   5.305   5.490  0.5338  0.0246 -0.0827
   86POPC   C1D 4439   5.893   5.265   5.348  0.1806 -0.8152  0.2543
   86POPC   C1E 4440   5.753   5.318   5.322  0.5546  0.0432 -0.0235
   86POPC   C1F 4441   5.703   5.289   5.180 -0.2889 -0.4606  0.3674
   86POPC   C1G 4442   5.580   5.372   5.142  0.2209  0.0464 -0.1989
   86POPC   C1H 4443   5.625   5.511   5.096 -0.0036  0.1207 -0.1926
   86POPC   C1I 4444   5.724   5.519   4.980 -0.2849 -0.6202 -0.4932
   86POPC   C1J 4445   5.778   5.633   4.938 -0.0645 -0.6240 -0.2288
   86POPC   C1K 4446   5.729   5.771   4.984  0.3309 -0.3206 -0.7119
   86POPC   C1L 4447   5.648   5.858   4.888 -0.1740 -0.2447 -0.2143
   86POPC   C1M 4448   5.738   5.960   4.820  0.2335 -0.5950 -0.2042
   86POPC   C1N 4449   5.660   6.033   4.710  0.1196 -0.4170 -0.0067
   86POPC   C1O 4450   5.613   5.939   4.598 -0.5594 -0.5234  0.3657
   86POPC   C1P 4451   5.500   6.008   4.521  0.2746  0.0034 -0.4101
   86POPC   C1Q 4452   5.414   5.906   4.445  0.2747 -0.1495 -0.2058
   86POPC   C1R 4453   5.358   5.975   4.320 -0.1129  0.1874  0.1511
   86POPC    CE 4454   0.103   5.389   5.766  0.5260 -0.0631 -0.1637
   86POPC    OG 4455   0.191   5.395   5.654  0.1986 -0.1007 -0.4237
   86POPC   C2A 4456   0.243   5.515   5.626  0.0455  0.0597 -0.0169
   86POPC    OH 4457   0.264   5.594   5.719  0.3170  0.4500 -0.4075
   86POPC   C2B 4458   0.315   5.511   5.497 -0.2017 -0.8654 -0.1357
   86POPC   C2C 4459   0.226   5.568   5.386  0.0809 -0.4271 -0.1425
   86POPC   C2D 4460   0.294   5.609   5.255  0.2342  0.1801  0.1287
   86POPC   C2E 4461   0.383   5.505   5.187 -0.4678  0.0162 -0.5435
   86POPC   C2F 4462   0.453   5.549   5.058  0.5646  0.2355  0.0866
   86POPC   C2G 4463   0.545   5.453   4.982  0.8222 -0.0833  0.7910
   86POPC   C2H 4464   0.590   5.530   4.858  0.7955 -0.1960  0.7111
   86POPC   C2I 4465   0.688   5.442   4.781 -0.1471 -0.3801 -0.3054
   86POPC   C2J 4466   0.732   5.513   4.653 -0.0015  0.3747  0.1542
   86POPC   C2K 4467   0.629   5.553   4.546  0.3752  0.0007 -0.3538
   86POPC   C2L 4468   0.692   5.574   4.409 -0.4258 -0.0883 -0.7394
   86POPC   C2M 4469   0.795   5.469   4.365  0.1334  0.0701  0.1755
   86POPC   C2N 4470   0.851   5.505   4.228 -0.4229  0.4849  0.0515
   86POPC   C2O 4471   0.751   5.530   4.115 -0.2336  0.2213 -0.1758
   86POPC   C2P 4472   0.818   5.614   4.006 -0.2092  0.1854 -0.1886
   87POPC   CN1 4473   1.381   2.551   5.928 -0.5647 -0.1802 -0.6331
   87POPC   CN2 4474   1.609   2.602   5.983 -0.0369 -0.3997  0.2772
   87POPC   CN3 4475   1.540   2.564   5.756 -0.1204  0.2478 -0.1513
   87POPC   NTM 4476   1.522   2.523   5.896 -0.3346  0.3801 -0.1394
   87POPC    CA 4477   1.553   2.381   5.918 -0.6215  0.2891 -0.3109
   87POPC    CB 4478   1.671   2.321   5.841  0.1080 -0.2445  1.1916
   87POPC    OA 4479   1.803   2.375   5.829 -0.0270 -0.1951 -0.2155
   87POPC     P 4480   1.912   2.258   5.849 -0.0383 -0.1748 -0.0326
   87POPC    OB 4481   1.870   2.151   5.943 -0.5176 -0.0833 -0.1365
   87POPC    OC 4482   2.045   2.321   5.851 -0.0798 -0.0917  0.1363
   87POPC    OD 4483   1.887   2.203   5.699 -0.3131  0.0173 -0.0583
   87POPC    CC 4484   1.964   2.268   5.598  0.2449 -0.3689  0.1110
   87POPC    CD 4485   1.887   2.277   5.466 -0.0817 -0.2288  0.3117
   87POPC    OE 4486   1.977   2.296   5.357 -0.4933 -0.5660 -0.0920
   87POPC   C1A 4487   1.963   2.204   5.263 -0.4115 -0.1012 -0.5625
   87POPC    OF 4488   1.896   2.101   5.268 -0.0420 -0.3243 -0.1622
   87POPC   C1B 4489   2.042   2.247   5.145  0.4675 -0.2381 -0.0255
   87POPC   C1C 4490   2.020   2.378   5.069  0.0259  0.1074  0.6868
   87POPC   C1D 4491   1.883   2.374   5.001  0.3408 -0.1683  0.0612
   87POPC   C1E 4492   1.865   2.497   4.912  0.0051 -0.3821 -0.1653
   87POPC   C1F 4493   1.950   2.485   4.786  0.1021  0.1863 -0.1566
   87POPC   C1G 4494   1.929   2.610   4.700  0.0132  0.0763 -0.2956
   87POPC   C1H 4495   1.954   2.596   4.550  0.1090  0.0506 -0.2774
   87POPC   C1I 4496   1.943   2.719   4.459 -0.2141  0.1238 -0.1392
   87POPC   C1J 4497   1.943   2.717   4.326  0.0791  0.4149 -0.1437
   87POPC   C1K 4498   1.963   2.586   4.251 -0.2733 -0.2172  0.8473
   87POPC   C1L 4499   1.851   2.554   4.151  0.1801 -0.4102  0.3973
   87POPC   C1M 4500   1.874   2.657   4.040 -0.3365 -0.0007  0.6674
   87POPC   C1N 4501   1.751   2.671   3.950  0.1986 -0.1393 -0.0892
   87POPC   C1O 4502   1.747   2.808   3.883  0.0850 -0.0479  0.1046
   87POPC   C1P 4503   1.831   2.807   3.755 -0.1718 -0.3397 -0.0623
   87POPC   C1Q 4504   1.842   2.952   3.706 -0.1009 -0.3536 -0.0885
   87POPC   C1R 4505   1.922   2.969   3.577 -0.8260  0.2999 -0.4572
   87POPC    CE 4506   1.764   2.366   5.491  0.2680  0.3078  0.1426
   87POPC    OG 4507   1.658   2.358   5.396 -0.0829  0.0478  0.5524
   87POPC   C2A 4508   1.590   2.472   5.387 -0.8383 -0.3750  0.7826
   87POPC    OH 4509   1.586   2.556   5.477 -0.3453  0.6788 -0.1473
   87POPC   C2B 4510   1.520   2.471   5.257  0.4103 -0.5711  0.0963
   87POPC   C2C 4511   1.474   2.608   5.205 -0.0182 -0.6454  0.2743
   87POPC   C2D 4512   1.397   2.609   5.073 -0.0903 -0.1869  0.3173
   87POPC   C2E 4513   1.480   2.610   4.945 -0.0844 -0.7791  0.3120
   87POPC   C2F 4514   1.413   2.544   4.824  0.3432 -0.3472 -0.1647
   87POPC   C2G 4515   1.484   2.573   4.691 -0.0347 -0.1027 -0.3161
   87POPC   C2H 4516   1.403   2.500   4.584 -0.4547  0.1735 -0.1913
   87POPC   C2I 4517   1.449   2.531   4.442 -0.1759 -0.1131 -0.1659
   87POPC   C2J 4518   1.378   2.440   4.340  0.7514 -0.9863 -0.0466
   87POPC   C2K 4519   1.448   2.464   4.206  0.4011  0.7747  0.0598
   87POPC   C2L 4520   1.406   2.348   4.116 -0.0241  0.4653  0.6497
   87POPC   C2M 4521   1.264   2.372   4.064  0.2738  0.5002 -0.1652
   87POPC   C2N 4522   1.223   2.289   3.943  0.6447 -0.0682  0.0938
   87POPC   C2O 4523   1.294   2.336   3.816  0.1907 -0.1009 -0.1750
   87POPC   C2P 4524   1.202   2.435   3.744  0.1328 -0.0273 -0.0000
   88POPC   CN1 4525   5.828   4.306   5.779 -0.2854 -0.2749 -0.4906
   88POPC   CN2 4526   5.960   4.410   5.606 -0.3789 -0.1974 -0.4129
   88POPC   CN3 4527   6.053   4.341   5.813  0.0465  0.0528 -0.4431
   88POPC   NTM 4528   5.935   4.403   5.751 -0.1928 -0.3450 -0.3870
   88POPC    CA 4529   5.908   4.527   5.826 -0.1324 -0.5283 -0.0619
   88POPC    CB 4530   5.838   4.644   5.757 -0.2516 -0.4514  0.1893
   88POPC    OA 4531   5.924   4.721   5.674 -0.4336 -0.0821  0.3395
   88POPC     P 4532   5.845   4.842   5.603 -0.1133  0.0391  0.1819
   88POPC    OB 4533   5.950   4.939   5.566  0.3203 -0.4976 -0.0032
   88POPC    OC 4534   5.730   4.876   5.691 -0.1752  0.2893  0.0055
   88POPC    OD 4535   5.785   4.766   5.474  0.0692 -0.2289  0.2549
   88POPC    CC 4536   5.880   4.778   5.367 -0.2536 -0.0245 -0.0098
   88POPC    CD 4537   5.862   4.667   5.263  0.2704 -0.2467  0.1323
   88POPC    OE 4538   5.978   4.650   5.182  0.0476 -0.1046 -0.2195
   88POPC   C1A 4539   6.090   4.594   5.227 -0.1364  0.0384  0.4204
   88POPC    OF 4540   6.114   4.586   5.348 -0.3885 -0.6515  0.4290
   88POPC   C1B 4541   6.188   4.584   5.117 -0.2973 -0.2771  0.3066
   88POPC   C1C 4542   6.270   4.455   5.127 -0.1050 -0.2193 -0.4426
   88POPC   C1D 4543   0.071   4.480   5.025  0.3429 -0.3357  0.0170
   88POPC   C1E 4544   0.153   4.352   5.008  0.3632 -0.4053  0.6259
   88POPC   C1F 4545   0.255   4.358   4.894 -0.2854 -0.6583  0.0245
   88POPC   C1G 4546   0.185   4.379   4.760 -0.3061  0.3037  0.1740
   88POPC   C1H 4547   0.268   4.446   4.650  0.0641  0.3701  0.4944
   88POPC   C1I 4548   0.181   4.486   4.531  0.9167 -0.5564 -0.4470
   88POPC   C1J 4549   0.229   4.587   4.459  0.0997  0.2760  0.1654
   88POPC   C1K 4550   0.374   4.634   4.473  0.0394  0.3969  0.3927
   88POPC   C1L 4551   0.403   4.732   4.359  0.0532 -0.0316  0.0280
   88POPC   C1M 4552   0.543   4.791   4.342 -0.0666  0.3624  0.4111
   88POPC   C1N 4553   0.539   4.889   4.225  0.1924  0.1270  0.2046
   88POPC   C1O 4554   0.683   4.937   4.206  0.2207  0.1848  0.5591
   88POPC   C1P 4555   0.700   5.043   4.097 -0.4422  0.0746  0.3427
   88POPC   C1Q 4556   0.650   4.994   3.961  0.1957  0.2255  0.0494
   88POPC   C1R 4557   0.641   5.109   3.860 -0.1242 -0.0876 -0.2847
   88POPC    CE 4558   5.737   4.707   5.183 -0.1539 -0.1225  0.8443
   88POPC    OG 4559   5.738   4.833   5.116 -0.5035 -0.2203  0.6556
   88POPC   C2A 4560   5.627   4.862   5.049 -0.1387  0.2010  0.2308
   88POPC    OH 4561   5.525   4.811   5.095  0.1518 -0.4272  0.1891
   88POPC   C2B 4562   5.636   4.988   4.971 -0.0169  0.1142  0.1045
   88POPC   C2C 4563   5.629   4.947   4.824  0.0284  0.1451  0.0933
   88POPC   C2D 4564   5.693   5.052   4.733 -0.2628  0.2263 -0.0214
   88POPC   C2E 4565   5.843   5.065   4.764 -0.2222  0.0750 -0.1522
   88POPC   C2F 4566   5.891   5.209   4.749  0.0576  0.0289  0.2863
   88POPC   C2G 4567   5.941   5.234   4.606 -0.1302  0.2893  0.2644
   88POPC   C2H 4568   6.017   5.365   4.583  0.2011  0.0466 -0.0406
   88POPC   C2I 4569   5.917   5.474   4.547 -0.1863 -0.2937 -0.0080
   88POPC   C2J 4570   5.989   5.608   4.531 -0.2982 -0.2142  0.1425
   88POPC   C2K 4571   5.910   5.720   4.461  0.2699  0.0971 -0.0058
   88POPC   C2L 4572   5.993   5.845   4.434 -0.0592  0.2283 -0.4212
   88POPC   C2M 4573   6.024   5.921   4.564 -0.1896 -0.2854 -0.0899
   88POPC   C2N 4574   6.090   6.055   4.533 -0.2360 -0.2322  0.0417
   88POPC   C2O 4575   6.232   6.029   4.482 -0.2361  0.3792 -0.2770
   88POPC   C2P 4576   6.285   6.158   4.419 -0.1159  0.5003  0.0740
   89POPC   CN1 4577   1.591   1.250   5.811  0.0590  0.1246 -0.2334
   89POPC   CN2 4578   1.351   1.280   5.772  0.1112  0.2442  0.1991
   89POPC   CN3 4579   1.499   1.376   5.631  0.3796 -0.4737 -0.2036
   89POPC   NTM 4580   1.484   1.343   5.773  0.1101  0.2535 -0.0621
   89POPC    CA 4581   1.492   1.464   5.857  0.2873 -0.0822  0.4122
   89POPC    CB 4582   1.402   1.585   5.834  0.2062 -0.2837 -0.3807
   89POPC    OA 4583   1.259   1.573   5.828  0.1721 -0.1728  0.1372
   89POPC     P 4584   1.189   1.663   5.714  0.2446  0.0793  0.2889
   89POPC    OB 4585   1.277   1.780   5.698 -0.4509  0.5200 -0.3688
   89POPC    OC 4586   1.043   1.685   5.722  0.1815 -0.0490 -0.4663
   89POPC    OD 4587   1.231   1.558   5.599  0.1329  0.1667  0.1685
   89POPC    CC 4588   1.206   1.614   5.470  0.5474  0.1418  0.0778
   89POPC    CD 4589   1.273   1.524   5.365 -0.2644  0.0093 -0.3309
   89POPC    OE 4590   1.323   1.595   5.252  0.0411 -0.0914 -0.2609
   89POPC   C1A 4591   1.448   1.568   5.217 -0.0345 -0.2752 -0.3927
   89POPC    OF 4592   1.517   1.488   5.280 -0.4358 -0.4537 -0.1780
   89POPC   C1B 4593   1.480   1.662   5.107  0.2017 -0.0404 -0.1260
   89POPC   C1C 4594   1.587   1.611   5.011  0.5182  0.4692 -0.0507
   89POPC   C1D 4595   1.616   1.709   4.898 -0.2108  0.0758 -0.5857
   89POPC   C1E 4596   1.703   1.637   4.795 -0.0219 -0.0481 -0.3390
   89POPC   C1F 4597   1.720   1.725   4.671  0.6550  0.0381 -0.1925
   89POPC   C1G 4598   1.802   1.640   4.573  0.4698 -0.3804  0.0155
   89POPC   C1H 4599   1.875   1.720   4.466 -0.5401 -0.0509 -0.4333
   89POPC   C1I 4600   1.959   1.635   4.371 -0.2346  0.7161 -0.8654
   89POPC   C1J 4601   2.020   1.692   4.268  0.3292  0.1350 -0.8581
   89POPC   C1K 4602   2.019   1.840   4.232 -0.1837  0.3001 -0.1678
   89POPC   C1L 4603   2.126   1.885   4.132 -0.2115  0.0040 -0.3298
   89POPC   C1M 4604   2.136   1.785   4.017  0.1806 -0.4817  0.1223
   89POPC   C1N 4605   2.252   1.792   3.917 -0.2745 -0.2065 -0.3919
   89POPC   C1O 4606   2.264   1.938   3.872  0.1988  0.0582  0.5625
   89POPC   C1P 4607   2.366   1.958   3.761 -0.3067 -0.5318 -0.0156
   89POPC   C1Q 4608   2.310   1.894   3.634 -0.1587  0.2357 -0.4721
   89POPC   C1R 4609   2.201   1.990   3.585 -0.1140  0.1957 -0.6499
   89POPC    CE 4610   1.171   1.413   5.334  0.2200 -0.4696 -0.2194
   89POPC    OG 4611   1.035   1.439   5.301  0.1995 -0.4883 -0.1495
   89POPC   C2A 4612   0.956   1.337   5.267 -0.5320 -0.2621  0.8064
   89POPC    OH 4613   1.004   1.224   5.267  0.4887  0.1386 -0.7345
   89POPC   C2B 4614   0.815   1.375   5.242 -0.2868 -0.1069 -0.3976
   89POPC   C2C 4615   0.759   1.331   5.107  0.0677  0.6295 -0.7893
   89POPC   C2D 4616   0.615   1.382   5.091 -0.1690  0.1616 -0.1871
   89POPC   C2E 4617   0.549   1.314   4.970 -0.2998 -0.1063  0.0343
   89POPC   C2F 4618   0.623   1.360   4.845 -0.6188  0.4407  0.0434
   89POPC   C2G 4619   0.534   1.354   4.720 -0.1781 -0.1196 -0.2457
   89POPC   C2H 4620   0.619   1.380   4.595 -0.0717  0.1329 -0.1207
   89POPC   C2I 4621   0.581   1.298   4.471 -0.2164  0.0692 -0.0355
   89POPC   C2J 4622   0.661   1.346   4.350  0.0118  0.2276  0.1757
   89POPC   C2K 4623   0.641   1.267   4.221 -0.5164  0.2464  0.2434
   89POPC   C2L 4624   0.687   1.346   4.098  0.2370 -0.5523 -0.0017
   89POPC   C2M 4625   0.839   1.336   4.081  0.2772  0.3516 -0.2127
   89POPC   C2N 4626   0.878   1.416   3.956  0.2055  0.3752 -0.2203
   89POPC   C2O 4627   1.030   1.417   3.945  0.2722  0.0313  0.5520
   89POPC   C2P 4628   1.085   1.522   3.848 -0.0845 -0.0437  0.2656
   90POPC   CN1 4629   3.242   3.201   5.462 -0.5482  0.4762 -0.5449
   90POPC   CN2 4630   3.098   3.350   5.565 -0.0800 -0.4363  0.1300
   90POPC   CN3 4631   3.332   3.362   5.625 -0.3857  0.1406  0.4643
   90POPC   NTM 4632   3.221   3.273   5.589  0.0731 -0.2424 -0.0258
   90POPC    CA 4633   3.189   3.182   5.700 -0.1282 -0.2353 -0.0773
   90POPC    CB 4634   3.288   3.075   5.747 -0.5037 -0.2891  0.6025
   90POPC    OA 4635   3.410   3.132   5.798 -0.3936  0.0911 -0.0790
   90POPC     P 4636   3.520   3.015   5.804 -0.1323  0.3578  0.3579
   90POPC    OB 4637   3.452   2.883   5.816  0.8333 -0.1187  0.6987
   90POPC    OC 4638   3.596   3.073   5.916  0.1647  0.7599 -0.0519
   90POPC    OD 4639   3.593   3.034   5.663 -0.1853  0.2527  0.3156
   90POPC    CC 4640   3.700   3.130   5.671 -0.0777  0.1575  0.0548
   90POPC    CD 4641   3.684   3.249   5.576  0.2061  0.1305 -0.0275
   90POPC    OE 4642   3.704   3.211   5.439  0.1355  0.4547 -0.1271
   90POPC   C1A 4643   3.618   3.263   5.352  0.0688  0.4792 -0.0470
   90POPC    OF 4644   3.504   3.294   5.388 -0.0550 -0.0452  0.0228
   90POPC   C1B 4645   3.662   3.245   5.212 -0.7584 -0.3648 -0.2093
   90POPC   C1C 4646   3.588   3.342   5.120 -0.2644  0.0147 -0.2149
   90POPC   C1D 4647   3.642   3.338   4.977  0.5030  0.1792  0.0637
   90POPC   C1E 4648   3.573   3.228   4.896 -0.2981  0.5520  0.2297
   90POPC   C1F 4649   3.577   3.251   4.744 -0.2846 -0.1341  0.1200
   90POPC   C1G 4650   3.553   3.117   4.676 -0.1109 -0.2464  0.2797
   90POPC   C1H 4651   3.514   3.148   4.532  0.0413 -0.3421  0.2167
   90POPC   C1I 4652   3.511   3.013   4.462 -0.0259 -0.2113 -0.0350
   90POPC   C1J 4653   3.539   2.996   4.333 -0.1276 -0.0748 -0.0751
   90POPC   C1K 4654   3.535   3.124   4.250  0.0809 -0.0103  0.0141
   90POPC   C1L 4655   3.435   3.103   4.136 -0.0373  0.1567  0.0857
   90POPC   C1M 4656   3.392   3.237   4.076  0.2577  0.2430  0.0622
   90POPC   C1N 4657   3.300   3.213   3.956 -0.1717  0.3066  0.3751
   90POPC   C1O 4658   3.216   3.329   3.902 -0.1451  0.0996 -0.1177
   90POPC   C1P 4659   3.085   3.281   3.839  0.0442 -0.1573 -0.3178
   90POPC   C1Q 4660   2.987   3.216   3.936 -0.3831  0.2567 -0.4662
   90POPC   C1R 4661   2.930   3.305   4.046  0.3534 -0.4363  0.4884
   90POPC    CE 4662   3.767   3.363   5.634  0.6075 -0.2556  0.1584
   90POPC    OG 4663   3.737   3.491   5.580 -0.0968 -0.4641  0.0516
   90POPC   C2A 4664   3.639   3.561   5.638  0.0835  0.0324 -0.2313
   90POPC    OH 4665   3.592   3.519   5.744  0.2187  0.1297 -0.1311
   90POPC   C2B 4666   3.610   3.696   5.585  0.1130  0.2245  0.2349
   90POPC   C2C 4667   3.519   3.693   5.462  0.3468 -0.4540  0.0707
   90POPC   C2D 4668   3.588   3.693   5.326  0.4951 -0.1307  0.1454
   90POPC   C2E 4669   3.538   3.814   5.247  0.4462 -0.3413 -0.1472
   90POPC   C2F 4670   3.562   3.790   5.098  0.2307 -0.1492 -0.2140
   90POPC   C2G 4671   3.706   3.805   5.047  0.3217 -0.1196  0.0517
   90POPC   C2H 4672   3.715   3.765   4.900 -0.1267 -0.0330 -0.0017
   90POPC   C2I 4673   3.863   3.767   4.859  0.0006 -0.2355  0.4453
   90POPC   C2J 4674   3.881   3.788   4.709 -0.3050 -0.0731  0.4309
   90POPC   C2K 4675   4.022   3.772   4.653 -0.1565  0.4295  0.6540
   90POPC   C2L 4676   4.030   3.814   4.506 -0.1786 -0.3428  0.4251
   90POPC   C2M 4677   3.998   3.963   4.491 -0.0311 -0.3762 -0.2441
   90POPC   C2N 4678   3.981   4.002   4.344  0.2271 -0.1841 -0.2253
   90POPC   C2O 4679   4.115   3.977   4.276  0.2039 -0.3646 -0.2047
   90POPC   C2P 4680   4.119   4.027   4.132  0.3165 -0.3456 -0.1953
   91POPC   CN1 4681   2.208   4.444   5.520  0.4949  0.0481 -0.1556
   91POPC   CN2 4682   2.443   4.417   5.601 -0.0204 -0.3453 -0.0224
   91POPC   CN3 4683   2.296   4.239   5.559 -0.0736 -0.2932  0.0574
   91POPC   NTM 4684   2.302   4.376   5.611 -0.0207 -0.3141  0.1086
   91POPC    CA 4685   2.251   4.389   5.748  0.0805  0.6230  0.0637
   91POPC    CB 4686   2.333   4.333   5.864 -0.1114 -0.0645 -0.1276
   91POPC    OA 4687   2.395   4.204   5.860 -0.0774 -0.0518 -0.0242
   91POPC     P 4688   2.540   4.198   5.929 -0.2043 -0.1396  0.2373
   91POPC    OB 4689   2.534   4.061   5.983 -0.2114 -0.2048  0.0725
   91POPC    OC 4690   2.550   4.325   0.006 -0.3872 -0.0304  0.0819
   91POPC    OD 4691   2.629   4.208   5.795 -0.0506  0.0199  0.3495
   91POPC    CC 4692   2.713   4.094   5.778 -0.4986 -0.3063  0.2894
   91POPC    CD 4693   2.687   3.998   5.662  0.0387 -0.1594  0.0421
   91POPC    OE 4694   2.781   3.890   5.651  0.2016 -0.0497  0.3660
   91POPC   C1A 4695   2.729   3.772   5.619 -0.1721  0.2465 -0.1304
   91POPC    OF 4696   2.619   3.738   5.660  0.0196  0.5914  0.6828
   91POPC   C1B 4697   2.843   3.684   5.584 -0.3404 -0.3071  0.6888
   91POPC   C1C 4698   2.789   3.571   5.496  0.6466  0.0367 -0.3909
   91POPC   C1D 4699   2.734   3.623   5.364  0.2419  0.0599 -0.2144
   91POPC   C1E 4700   2.688   3.494   5.296  0.3746 -0.1304  0.0545
   91POPC   C1F 4701   2.625   3.517   5.158 -0.1400  0.4202  0.3777
   91POPC   C1G 4702   2.724   3.551   5.047  0.0184 -0.1135  0.3495
   91POPC   C1H 4703   2.650   3.531   4.915  0.3002  0.7239  0.0566
   91POPC   C1I 4704   2.735   3.568   4.793  0.0231 -0.4825 -0.5194
   91POPC   C1J 4705   2.661   3.651   4.720 -0.1230 -0.1616 -0.0153
   91POPC   C1K 4706   2.522   3.696   4.763  0.0271 -0.0108  0.3220
   91POPC   C1L 4707   2.506   3.840   4.713  0.2215 -0.0908  0.0291
   91POPC   C1M 4708   2.363   3.893   4.722  0.4266  0.4864 -0.0412
   91POPC   C1N 4709   2.336   4.037   4.679 -0.2758  0.3979  0.0886
   91POPC   C1O 4710   2.191   4.085   4.690 -0.4165 -0.0574  0.2627
   91POPC   C1P 4711   2.166   4.220   4.623 -0.0794 -0.2770 -0.3108
   91POPC   C1Q 4712   2.153   4.203   4.471 -0.1879 -0.2411 -0.3059
   91POPC   C1R 4713   2.177   4.338   4.403 -0.4106 -0.1641 -0.2317
   91POPC    CE 4714   2.682   4.085   5.536 -0.1544 -0.3951 -0.1142
   91POPC    OG 4715   2.630   4.035   5.412 -0.1019  0.3023 -0.4240
   91POPC   C2A 4716   2.582   4.125   5.328 -0.5160 -0.1328 -0.6605
   91POPC    OH 4717   2.543   4.236   5.365 -0.3657 -0.3390  0.1399
   91POPC   C2B 4718   2.536   4.069   5.199 -0.8451  0.1717 -0.6780
   91POPC   C2C 4719   2.636   4.069   5.083 -0.0539  0.0266 -0.0072
   91POPC   C2D 4720   2.751   3.969   5.096 -0.3051 -0.2594  0.0375
   91POPC   C2E 4721   2.847   3.990   4.978  0.1049  0.0190  0.4154
   91POPC   C2F 4722   2.946   3.873   4.982 -0.2931 -0.3472 -0.2552
   91POPC   C2G 4723   3.074   3.901   4.903 -0.3700  0.0370 -0.2469
   91POPC   C2H 4724   3.130   3.768   4.853 -0.5172 -0.1537  0.0918
   91POPC   C2I 4725   3.273   3.801   4.810 -0.4659  0.0408  0.4068
   91POPC   C2J 4726   3.326   3.690   4.718  0.1138  0.6413  0.0011
   91POPC   C2K 4727   3.463   3.709   4.654  0.0505  0.5905 -0.1488
   91POPC   C2L 4728   3.444   3.793   4.527 -0.1798 -0.2357 -0.6644
   91POPC   C2M 4729   3.570   3.758   4.447  0.2054 -0.1184 -0.1145
   91POPC   C2N 4730   3.587   3.611   4.407 -0.1159 -0.3124  0.4534
   91POPC   C2O 4731   3.693   3.606   4.297 -0.5882 -0.0681 -0.0156
   91POPC   C2P 4732   3.712   3.465   4.242  0.2915 -0.0772  0.2888
   92POPC   CN1 4733   3.202   3.683   0.004  0.3077 -0.0076  0.4069
   92POPC   CN2 4734   3.015   3.802   5.896  0.2704 -0.4652  0.3832
   92POPC   CN3 4735   3.175   3.706   5.773 -0.0177  0.2364 -0.4316
   92POPC   NTM 4736   3.160   3.779   5.900  0.2833 -0.4504  0.0063
   92POPC    CA 4737   3.223   3.912   5.906 -0.0863 -0.2798  0.0978
   92POPC    CB 4738   3.373   3.923   5.878 -0.2274  0.0530 -0.5581
   92POPC    OA 4739   3.423   3.916   5.744  0.7031  0.2551 -0.2273
   92POPC     P 4740   3.397   4.046   5.653 -0.1482  0.1484 -0.1494
   92POPC    OB 4741   3.505   4.050   5.552  0.3366  0.2813  0.3632
   92POPC    OC 4742   3.380   4.155   5.752 -0.2194 -0.0513  0.0599
   92POPC    OD 4743   3.252   4.003   5.599 -0.2080  0.0840  0.0614
   92POPC    CC 4744   3.270   3.955   5.466 -0.3623 -0.1313  0.1176
   92POPC    CD 4745   3.139   3.908   5.403 -0.5201  0.6925 -0.1915
   92POPC    OE 4746   3.152   3.814   5.295 -0.3062 -0.0210  0.4485
   92POPC   C1A 4747   3.167   3.683   5.312 -0.5520 -0.1288 -0.1477
   92POPC    OF 4748   3.145   3.638   5.424  0.0608  0.1038  0.0727
   92POPC   C1B 4749   3.195   3.593   5.198  0.0196 -0.4224  0.2149
   92POPC   C1C 4750   3.094   3.479   5.183 -0.0671 -0.3965  0.6035
   92POPC   C1D 4751   3.126   3.362   5.091  0.0773  0.4701 -0.4642
   92POPC   C1E 4752   3.153   3.394   4.944  0.5688  0.4619 -0.3770
   92POPC   C1F 4753   3.161   3.261   4.869  0.1180 -0.2462  0.8103
   92POPC   C1G 4754   3.198   3.268   4.720  0.1638  0.7684  0.8654
   92POPC   C1H 4755   3.096   3.348   4.639 -0.2097 -0.4197  0.1358
   92POPC   C1I 4756   3.097   3.310   4.491 -0.6671 -0.2672  0.0907
   92POPC   C1J 4757   3.089   3.409   4.402  0.1549  0.0284  0.3355
   92POPC   C1K 4758   3.065   3.557   4.430 -0.1781  0.0320  0.0342
   92POPC   C1L 4759   2.988   3.617   4.312  0.2238 -0.0344 -0.2620
   92POPC   C1M 4760   3.081   3.634   4.192  0.6621  0.0684  0.0878
   92POPC   C1N 4761   3.177   3.751   4.212  0.7231 -0.1608  1.1553
   92POPC   C1O 4762   3.251   3.775   4.080 -0.1649 -0.0656  0.6685
   92POPC   C1P 4763   3.353   3.888   4.093  0.0454 -0.1973  0.1974
   92POPC   C1Q 4764   3.428   3.925   3.965 -0.4555  0.7944  0.1781
   92POPC   C1R 4765   3.518   4.045   3.996  0.1318  0.5067 -0.3939
   92POPC    CE 4766   3.057   4.031   5.365 -0.8327  0.4270 -0.3846
   92POPC    OG 4767   3.098   4.119   5.260 -0.0839 -0.0461 -0.4903
   92POPC   C2A 4768   3.020   4.222   5.229  0.0251  0.0056 -0.5928
   92POPC    OH 4769   2.921   4.258   5.292  0.1872 -0.2334 -0.1987
   92POPC   C2B 4770   3.051   4.283   5.098 -0.0470  0.2071 -0.5154
   92POPC   C2C 4771   2.937   4.366   5.037 -0.2252  0.2658 -0.1028
   92POPC   C2D 4772   2.970   4.434   4.904  0.5462 -0.3208 -0.2189
   92POPC   C2E 4773   3.079   4.541   4.914  0.3590 -0.1431 -0.0704
   92POPC   C2F 4774   3.119   4.595   4.776  0.2064 -0.3122 -0.1798
   92POPC   C2G 4775   3.227   4.702   4.787  0.3892 -0.4849 -0.2858
   92POPC   C2H 4776   3.345   4.657   4.872  0.3180 -0.1389 -0.0004
   92POPC   C2I 4777   3.464   4.754   4.869  0.3462 -0.1913 -0.7395
   92POPC   C2J 4778   3.581   4.708   4.956 -0.1115 -0.1902 -0.1133
   92POPC   C2K 4779   3.668   4.605   4.883 -0.6061 -0.2018 -0.6908
   92POPC   C2L 4780   3.735   4.643   4.751  0.1306 -0.1160 -0.2920
   92POPC   C2M 4781   3.827   4.765   4.750 -0.1062  0.0617 -0.3094
   92POPC   C2N 4782   3.858   4.812   4.607  0.5990  0.2324 -0.1036
   92POPC   C2O 4783   3.744   4.903   4.561  0.3914 -0.3122 -0.6765
   92POPC   C2P 4784   3.736   4.950   4.416 -0.4716  0.3340 -0.4267
   93POPC   CN1 4785   1.104   6.153   0.187  0.0625  0.1025  0.2054
   93POPC   CN2 4786   1.172   6.193   5.966 -0.3631 -0.2489  0.0527
   93POPC   CN3 4787   1.005   6.333   0.053  0.2927  0.0670  0.4257
   93POPC   NTM 4788   1.055   6.194   0.055 -0.2191 -0.1200  0.2402
   93POPC    CA 4789   0.951   6.092   0.035 -0.0943 -0.1939 -0.0356
   93POPC    CB 4790   0.878   6.080   5.901 -0.0500 -0.1647 -0.0619
   93POPC    OA 4791   0.953   6.050   5.782 -0.0733 -0.0701 -0.1010
   93POPC     P 4792   0.870   6.116   5.661  0.3721  0.0164 -0.3598
   93POPC    OB 4793   0.875   6.261   5.693  0.1512 -0.0464 -0.0304
   93POPC    OC 4794   0.751   6.029   5.646  0.0886  0.3348 -0.0028
   93POPC    OD 4795   0.977   6.087   5.545  0.6808  0.3830 -0.1685
   93POPC    CC 4796   0.994   5.948   5.515 -0.1387  0.2224  0.1061
   93POPC    CD 4797   0.983   5.897   5.371 -0.0144  0.2487  0.0878
   93POPC    OE 4798   1.096   5.931   5.290  0.3059  0.1760  0.4996
   93POPC   C1A 4799   1.208   5.863   5.310  0.2198 -0.2895 -0.5626
   93POPC    OF 4800   1.221   5.784   5.403  0.2204 -0.3647 -0.6257
   93POPC   C1B 4801   1.324   5.909   5.230  0.3495  0.0023 -0.2102
   93POPC   C1C 4802   1.331   5.845   5.091 -0.1710  0.3030 -0.3799
   93POPC   C1D 4803   1.443   5.909   5.008  0.4957  0.0968  0.3480
   93POPC   C1E 4804   1.455   5.850   4.867 -0.1787  0.4140  0.1533
   93POPC   C1F 4805   1.329   5.863   4.781 -0.3040  0.2356  0.3099
   93POPC   C1G 4806   1.356   5.841   4.632 -0.3995  0.1185  0.3106
   93POPC   C1H 4807   1.232   5.867   4.546 -0.4710 -0.2441  0.3010
   93POPC   C1I 4808   1.247   5.809   4.406  0.2245  0.3084  0.1450
   93POPC   C1J 4809   1.141   5.816   4.326  0.2111  0.1611  0.1493
   93POPC   C1K 4810   1.021   5.895   4.379  0.1584  0.1513  0.0432
   93POPC   C1L 4811   0.912   5.921   4.274  0.1006  0.6742  0.2277
   93POPC   C1M 4812   0.805   6.008   4.339  0.3116  0.5827  0.7001
   93POPC   C1N 4813   0.678   6.039   4.259  0.6392 -0.0411 -0.0756
   93POPC   C1O 4814   0.592   6.145   4.328  0.4187 -0.4866  0.3393
   93POPC   C1P 4815   0.494   6.083   4.428 -0.3427 -0.1951 -0.2130
   93POPC   C1Q 4816   0.425   6.175   4.529  0.1963 -0.4581  0.3962
   93POPC   C1R 4817   0.316   6.096   4.602  0.1615 -0.5314  0.2638
   93POPC    CE 4818   0.858   5.962   5.311 -0.3048 -0.1745  0.2318
   93POPC    OG 4819   0.737   5.921   5.374 -0.1825 -0.4155  0.3103
   93POPC   C2A 4820   0.632   6.003   5.379  0.0857 -0.0318 -0.2459
   93POPC    OH 4821   0.647   6.118   5.340 -0.1887  0.1521  0.1717
   93POPC   C2B 4822   0.504   5.957   5.437  0.1848 -0.0212 -0.0166
   93POPC   C2C 4823   0.439   6.067   5.521  0.2731  0.1161 -0.1289
   93POPC   C2D 4824   0.294   6.034   5.556  0.4142  0.4810  0.8540
   93POPC   C2E 4825   0.201   6.091   5.448  0.3716 -0.0574  0.6002
   93POPC   C2F 4826   0.057   6.042   5.443  0.3041  0.1859  0.0668
   93POPC   C2G 4827   0.055   5.889   5.446 -0.1113  0.1992  0.7975
   93POPC   C2H 4828   6.227   5.822   5.451 -0.4097  0.7779  0.4814
   93POPC   C2I 4829   6.134   5.835   5.330  0.2637  0.2141 -0.1060
   93POPC   C2J 4830   6.176   5.742   5.216  0.0460  0.1565 -0.1390
   93POPC   C2K 4831   6.143   5.595   5.239  0.0819  0.1990  0.1789
   93POPC   C2L 4832   6.133   5.514   5.110  0.0606 -0.2480  0.4564
   93POPC   C2M 4833   6.257   5.532   5.022 -0.1235  0.3917  0.3231
   93POPC   C2N 4834   6.222   5.476   4.884  0.1429  0.2609  0.3083
   93POPC   C2O 4835   6.306   5.543   4.776  0.2769 -0.1447  0.1567
   93POPC   C2P 4836   0.147   5.517   4.770  0.2824 -0.1934  0.5045
   94POPC   CN1 4837   3.908   2.237   5.410 -0.2012  0.0459 -0.1997
   94POPC   CN2 4838   3.856   2.329   5.620 -0.2300 -0.4946  0.1257
   94POPC   CN3 4839   3.809   2.097   5.592 -0.1823 -0.3203 -0.1827
   94POPC   NTM 4840   3.814   2.226   5.523 -0.0912 -0.3010 -0.1392
   94POPC    CA 4841   3.676   2.256   5.483  0.0273  0.0538 -0.2886
   94POPC    CB 4842   3.564   2.278   5.585  0.0826  0.2895 -0.2764
   94POPC    OA 4843   3.577   2.385   5.679 -0.1516  0.4067 -0.3767
   94POPC     P 4844   3.458   2.391   5.788  0.2165 -0.2331  0.0717
   94POPC    OB 4845   3.484   2.472   5.909  0.2388 -0.0215 -0.0741
   94POPC    OC 4846   3.394   2.258   5.801  0.6009 -0.4285 -0.0110
   94POPC    OD 4847   3.347   2.472   5.704 -0.2464 -0.0996  0.8106
   94POPC    CC 4848   3.216   2.422   5.675 -0.3112  0.3964  0.2415
   94POPC    CD 4849   3.201   2.310   5.572  0.6510  0.2774  0.2173
   94POPC    OE 4850   3.229   2.351   5.438 -0.4307 -0.2397 -0.1865
   94POPC   C1A 4851   3.284   2.260   5.358  0.0541 -0.0769 -0.0454
   94POPC    OF 4852   3.365   2.183   5.408 -0.2998 -0.5199 -0.1498
   94POPC   C1B 4853   3.270   2.294   5.215  0.0946 -0.0851 -0.0512
   94POPC   C1C 4854   3.390   2.377   5.169 -0.1063  0.0355 -0.3640
   94POPC   C1D 4855   3.511   2.286   5.149  0.2837  0.3835  0.3695
   94POPC   C1E 4856   3.618   2.347   5.058  0.4246 -0.4402 -0.0300
   94POPC   C1F 4857   3.735   2.250   5.042  0.6858 -0.1426  0.0695
   94POPC   C1G 4858   3.852   2.323   4.976  0.4155  0.4799  0.2735
   94POPC   C1H 4859   3.827   2.350   4.828  0.2215  0.3469  0.2813
   94POPC   C1I 4860   3.934   2.444   4.772  0.1742  0.2181 -0.0297
   94POPC   C1J 4861   3.983   2.427   4.650 -0.0367  0.3977 -0.1390
   94POPC   C1K 4862   3.947   2.312   4.555 -0.1577  0.3076  0.0150
   94POPC   C1L 4863   3.988   2.353   4.413  0.0111  0.2744  0.0531
   94POPC   C1M 4864   3.937   2.246   4.317  0.7012  0.0436 -0.0592
   94POPC   C1N 4865   3.986   2.263   4.173  0.1685  0.4498 -0.1946
   94POPC   C1O 4866   3.935   2.169   4.063  0.3303  0.4069 -0.2331
   94POPC   C1P 4867   3.949   2.233   3.925  0.3230  0.2529 -0.3049
   94POPC   C1Q 4868   3.844   2.340   3.896  0.1901  0.1805 -0.0954
   94POPC   C1R 4869   3.865   2.389   3.752 -0.3953  0.0561 -0.2274
   94POPC    CE 4870   3.054   2.270   5.587  0.5723  0.6240  0.3893
   94POPC    OG 4871   2.953   2.367   5.560  0.2291  0.1629 -0.0105
   94POPC   C2A 4872   2.828   2.323   5.547  0.2531 -0.0689  0.5320
   94POPC    OH 4873   2.780   2.215   5.582 -0.2092 -0.0297  0.0313
   94POPC   C2B 4874   2.741   2.432   5.497  0.4919 -0.1982 -0.1834
   94POPC   C2C 4875   2.731   2.453   5.346  0.3192 -0.2661 -0.1811
   94POPC   C2D 4876   2.863   2.472   5.272  0.3530  0.4160  0.0534
   94POPC   C2E 4877   2.838   2.486   5.122  0.5150  0.2010  0.0060
   94POPC   C2F 4878   2.971   2.531   5.061  0.6893  0.2094  0.3853
   94POPC   C2G 4879   2.955   2.664   4.987  0.0042 -0.0311  0.0900
   94POPC   C2H 4880   2.899   2.653   4.845  0.2195 -0.3468  0.0291
   94POPC   C2I 4881   3.000   2.648   4.730  0.3357  0.6658  0.0734
   94POPC   C2J 4882   3.090   2.771   4.715  0.2330  0.7486  0.1387
   94POPC   C2K 4883   3.151   2.784   4.576  0.3657  0.0076  0.1230
   94POPC   C2L 4884   3.035   2.835   4.490  0.0314  0.0292  0.5837
   94POPC   C2M 4885   3.069   2.823   4.341 -0.1296  0.0449  0.5453
   94POPC   C2N 4886   2.953   2.863   4.250  0.3150  0.1579  0.0196
   94POPC   C2O 4887   2.978   2.839   4.101  0.0200 -0.3306  0.0464
   94POPC   C2P 4888   2.844   2.840   4.027 -0.0219 -0.1035  0.1220
   95POPC   CN1 4889   4.854   6.253   5.756 -0.0415 -0.3345  0.4331
   95POPC   CN2 4890   5.080   6.243   5.826 -0.3597  0.7642  0.5362
   95POPC   CN3 4891   4.935   6.051   5.867 -0.1258 -0.4434 -0.2967
   95POPC   NTM 4892   4.944   6.198   5.859 -0.0215 -0.4113  0.3742
   95POPC    CA 4893   4.905   6.241   5.994 -0.0930  0.5256  0.0638
   95POPC    CB 4894   4.945   0.037   0.052  0.0123  0.3642  0.3720
   95POPC    OA 4895   4.886   0.131   5.962 -0.3338 -0.0956  0.1137
   95POPC     P 4896   4.818   0.249   0.047 -0.3539 -0.0204 -0.0064
   95POPC    OB 4897   4.926   0.308   0.128 -0.8107  0.4661  0.2570
   95POPC    OC 4898   4.696   0.181   0.098 -0.1845 -0.4302 -0.1410
   95POPC    OD 4899   4.776   0.333   5.916 -0.4502  0.3867  0.2830
   95POPC    CC 4900   4.882   0.423   5.886 -0.1057 -0.1041  0.0062
   95POPC    CD 4901   4.986   0.380   5.783 -0.0722  0.0746 -0.0358
   95POPC    OE 4902   5.084   0.484   5.783  0.3958 -0.3631  0.1699
   95POPC   C1A 4903   5.214   0.462   5.798  0.5335  0.1703 -0.2154
   95POPC    OF 4904   5.248   0.349   5.834 -0.4527 -0.0398  0.0846
   95POPC   C1B 4905   5.298   0.582   5.816  0.2066  0.3553  0.0810
   95POPC   C1C 4906   5.291   0.678   5.696  0.1170  0.1825 -0.0517
   95POPC   C1D 4907   5.369   0.632   5.573 -0.3351  0.2818 -0.3803
   95POPC   C1E 4908   5.376   0.744   5.469  0.2237 -0.2189 -0.8878
   95POPC   C1F 4909   5.239   0.769   5.406 -0.3171  0.4767  0.5304
   95POPC   C1G 4910   5.237   0.914   5.356  0.6210  0.0906 -0.6552
   95POPC   C1H 4911   5.263   0.928   5.205 -0.4000  0.0221 -0.8432
   95POPC   C1I 4912   5.231   1.071   5.163 -0.1617  0.3407  0.0323
   95POPC   C1J 4913   5.285   1.128   5.055 -0.5451 -0.0750 -0.3818
   95POPC   C1K 4914   5.375   1.044   4.965  0.3065  0.0504  0.3479
   95POPC   C1L 4915   5.390   1.107   4.826  0.0708 -0.4011  0.1157
   95POPC   C1M 4916   5.275   1.083   4.730 -0.1362  0.8156  0.0417
   95POPC   C1N 4917   5.327   1.136   4.596 -0.5868  0.1524 -0.4062
   95POPC   C1O 4918   5.243   1.071   4.485 -0.6633  0.2149 -0.3850
   95POPC   C1P 4919   5.299   1.119   4.351  0.0797 -0.2398 -0.2472
   95POPC   C1Q 4920   5.220   1.066   4.230  0.3760 -0.3725 -0.3837
   95POPC   C1R 4921   5.079   1.125   4.238  0.5624  0.1103 -0.5581
   95POPC    CE 4922   4.914   0.332   5.656  0.4346 -0.5593 -0.0906
   95POPC    OG 4923   4.839   0.438   5.597  0.2847 -0.4284  0.3289
   95POPC   C2A 4924   4.747   0.398   5.509  0.8580  0.0518 -0.4967
   95POPC    OH 4925   4.702   0.284   5.504 -0.1393  0.4177  0.0273
   95POPC   C2B 4926   4.690   0.515   5.438 -0.2481 -0.2064 -0.0566
   95POPC   C2C 4927   4.723   0.495   5.290 -0.6736 -0.3353 -0.1323
   95POPC   C2D 4928   4.672   0.608   5.200 -0.3217 -0.4967 -0.5396
   95POPC   C2E 4929   4.711   0.585   5.054  0.4046  0.1404 -0.4550
   95POPC   C2F 4930   4.634   0.469   4.990 -0.0290  0.1899 -0.0320
   95POPC   C2G 4931   4.647   0.481   4.838  0.4103 -0.5414 -0.0562
   95POPC   C2H 4932   4.566   0.373   4.767 -0.0918 -0.1392 -0.1004
   95POPC   C2I 4933   4.633   0.237   4.789 -0.0974 -0.1643 -0.2343
   95POPC   C2J 4934   4.525   0.131   4.768 -0.1069 -0.2140  0.0572
   95POPC   C2K 4935   4.587   6.337   4.725  0.1528 -0.1677  0.2864
   95POPC   C2L 4936   4.496   6.216   4.709  0.2381 -0.1843 -0.0817
   95POPC   C2M 4937   4.392   6.237   4.598  0.1707  0.5625  0.1151
   95POPC   C2N 4938   4.294   6.124   4.565 -0.0677  0.6535  0.5037
   95POPC   C2O 4939   4.215   6.161   4.440 -0.0238 -0.4768  0.1322
   95POPC   C2P 4940   4.110   6.061   4.389  0.2150 -0.3600 -0.6110
   96POPC   CN1 4941   6.082   2.478   5.917  0.4444 -0.1799  0.0538
   96POPC   CN2 4942   6.086   2.704   5.962 -1.0901 -0.7983  0.1576
   96POPC   CN3 4943   6.072   2.638   5.729  0.5393  0.3962 -0.1385
   96POPC   NTM 4944   6.128   2.606   5.861  0.0755 -0.0945 -0.0564
   96POPC    CA 4945   6.275   2.620   5.863  0.0862 -0.2416  0.3437
   96POPC    CB 4946   0.061   2.537   5.777 -0.0527  0.2558 -0.3063
   96POPC    OA 4947   0.059   2.395   5.798  0.0109  0.2175 -0.5592
   96POPC     P 4948   0.156   2.314   5.698  0.4342 -0.1508  0.1466
   96POPC    OB 4949   0.125   2.179   5.750 -0.0022  0.0157  0.3254
   96POPC    OC 4950   0.290   2.376   5.690  0.0818  0.5945 -0.0482
   96POPC    OD 4951   0.094   2.342   5.553  0.2020 -0.6828  0.1406
   96POPC    CC 4952   6.296   2.253   5.523  0.0840 -0.3507 -0.4488
   96POPC    CD 4953   6.168   2.315   5.466  0.1148  0.0700 -0.0729
   96POPC    OE 4954   6.048   2.237   5.460 -0.1710  0.5327 -0.4409
   96POPC   C1A 4955   5.949   2.283   5.537 -0.1734 -0.2033  0.0058
   96POPC    OF 4956   5.967   2.362   5.630 -0.0512 -0.3458  0.1041
   96POPC   C1B 4957   5.818   2.220   5.508 -0.2832  0.0033  0.0531
   96POPC   C1C 4958   5.753   2.300   5.396 -0.0416  0.3148  0.1324
   96POPC   C1D 4959   5.667   2.421   5.434 -0.4898  0.0258  0.0502
   96POPC   C1E 4960   5.634   2.485   5.299 -0.3200 -0.3741 -0.1827
   96POPC   C1F 4961   5.746   2.585   5.270 -0.6940  0.2121  0.3750
   96POPC   C1G 4962   5.708   2.696   5.172  0.0792  0.2829  0.1450
   96POPC   C1H 4963   5.674   2.641   5.033  0.1730 -0.2016  0.3117
   96POPC   C1I 4964   5.796   2.569   4.973  0.6100  0.2285  0.6768
   96POPC   C1J 4965   5.817   2.559   4.842 -0.0420  0.3162  0.5585
   96POPC   C1K 4966   5.727   2.623   4.736  0.1713  0.1207  0.2580
   96POPC   C1L 4967   5.807   2.743   4.686  0.5076 -0.2317 -0.0555
   96POPC   C1M 4968   5.732   2.800   4.565 -0.0783 -0.6082  0.1294
   96POPC   C1N 4969   5.791   2.937   4.533 -0.4885 -0.4775 -0.0839
   96POPC   C1O 4970   5.726   2.975   4.399 -0.3030 -0.1120 -0.0719
   96POPC   C1P 4971   5.813   3.037   4.290  0.3477 -0.3018  0.3321
   96POPC   C1Q 4972   5.911   2.934   4.234  0.4233  0.0144 -0.1293
   96POPC   C1R 4973   6.030   3.003   4.167  0.4041  0.2048  0.0341
   96POPC    CE 4974   6.191   2.371   5.326 -0.4892 -0.1265 -0.2541
   96POPC    OG 4975   6.192   2.277   5.218  0.1900 -0.0680 -0.3040
   96POPC   C2A 4976   6.193   2.336   5.099 -0.0596  0.4861 -0.0347
   96POPC    OH 4977   6.134   2.443   5.082 -0.0999  0.4881  0.1154
   96POPC   C2B 4978   6.214   2.239   4.989 -0.6527 -0.0303  0.3077
   96POPC   C2C 4979   6.177   2.295   4.852 -0.0222 -0.0482  0.1282
   96POPC   C2D 4980   6.154   2.197   4.737 -0.3856  0.2157 -0.0285
   96POPC   C2E 4981   6.283   2.117   4.713 -0.1750  0.5815 -0.1143
   96POPC   C2F 4982   6.275   2.000   4.615  0.7754 -0.0317  0.5285
   96POPC   C2G 4983   6.158   1.917   4.667  0.2650  0.1187 -0.3684
   96POPC   C2H 4984   6.129   1.788   4.589 -0.2474 -0.1621  0.2765
   96POPC   C2I 4985   6.004   1.719   4.644 -0.4467 -0.0360 -0.0173
   96POPC   C2J 4986   5.888   1.816   4.626 -0.0465  0.4652  0.0784
   96POPC   C2K 4987   5.822   1.824   4.488  0.0073 -0.4556 -0.0025
   96POPC   C2L 4988   5.724   1.940   4.499 -0.2465 -0.6662 -0.0308
   96POPC   C2M 4989   5.639   1.962   4.373 -0.3170  0.1932  0.1605
   96POPC   C2N 4990   5.567   1.840   4.315  0.2419  0.0829 -0.3088
   96POPC   C2O 4991   5.490   1.888   4.191  0.4660  0.0051 -0.4784
   96POPC   C2P 4992   5.581   1.904   4.069 -0.0889 -0.4576 -0.9569
   97POPC   CN1 4993   2.749   0.110   5.880 -0.5691  0.1602  0.0297
   97POPC   CN2 4994   2.681   0.234   5.702  0.3351 -0.3110 -0.9023
   97POPC   CN3 4995   2.735   0.345   5.913 -0.1109 -0.7523  0.1583
   97POPC   NTM 4996   2.670   0.230   5.848 -0.4130  0.0170 -0.9451
   97POPC    CA 4997   2.535   0.199   5.898  0.0456 -0.5657 -0.0403
   97POPC    CB 4998   2.412   0.266   5.837  0.1046 -0.1043  0.3451
   97POPC    OA 4999   2.391   0.407   5.856 -0.0911 -0.1436  0.4223
   97POPC     P 5000   2.257   0.447   5.775  0.1781  0.1687  0.1274
   97POPC    OB 5001   2.241   0.589   5.813  0.0966  0.0750  0.4501
   97POPC    OC 5002   2.151   0.351   5.812 -0.4113  0.6382 -0.3397
   97POPC    OD 5003   2.314   0.432   5.626  0.1131  0.1354  0.1059
   97POPC    CC 5004   2.368   0.558   5.584 -0.1935  0.1681 -0.1980
   97POPC    CD 5005   2.501   0.558   5.509  0.1061  0.5463  0.3261
   97POPC    OE 5006   2.541   0.694   5.488  0.1368  0.4947  0.0472
   97POPC   C1A 5007   2.668   0.725   5.464  0.1157  0.2962 -0.3297
   97POPC    OF 5008   2.755   0.662   5.523 -0.2568 -0.0708 -0.1694
   97POPC   C1B 5009   2.675   0.871   5.441  0.5141  0.3681  0.2499
   97POPC   C1C 5010   2.761   0.916   5.323  0.5424 -0.0357  0.1167
   97POPC   C1D 5011   2.734   0.833   5.197 -0.8953 -0.0316  0.4080
   97POPC   C1E 5012   2.615   0.876   5.111 -0.0800  0.1030 -0.6681
   97POPC   C1F 5013   2.633   0.795   4.982  0.2533 -0.5227 -0.2318
   97POPC   C1G 5014   2.753   0.826   4.892 -0.2396  0.0120 -0.7072
   97POPC   C1H 5015   2.784   0.697   4.816 -0.6016 -0.5542  0.0921
   97POPC   C1I 5016   2.775   0.707   4.664  0.0894 -0.1545  0.0693
   97POPC   C1J 5017   2.768   0.592   4.597 -0.0369  0.2108 -0.5503
   97POPC   C1K 5018   2.778   0.460   4.674 -0.4047  0.3720 -0.2248
   97POPC   C1L 5019   2.752   0.337   4.587  0.8287  0.1433 -0.2912
   97POPC   C1M 5020   2.827   0.213   4.634 -0.2869 -0.3444  0.2507
   97POPC   C1N 5021   2.979   0.232   4.626 -0.2834 -0.3911  0.2038
   97POPC   C1O 5022   3.050   0.098   4.641 -0.0937 -0.2576  0.5085
   97POPC   C1P 5023   3.196   0.119   4.598 -0.3315  0.0457 -0.1768
   97POPC   C1Q 5024   3.303   0.016   4.638 -0.2189  0.1003 -0.3384
   97POPC   C1R 5025   3.271   6.214   4.592 -1.0436  0.1230  0.1358
   97POPC    CE 5026   2.479   0.475   5.383  0.1645  0.7035  0.2119
   97POPC    OG 5027   2.582   0.474   5.283 -0.0787  0.0837 -0.0355
   97POPC   C2A 5028   2.690   0.397   5.288 -0.0946  0.0435 -0.2682
   97POPC    OH 5029   2.722   0.335   5.390 -0.0792 -0.0405 -0.3239
   97POPC   C2B 5030   2.789   0.422   5.181 -0.1630  0.8838 -0.1447
   97POPC   C2C 5031   2.749   0.360   5.047  0.1315  0.6861 -0.1425
   97POPC   C2D 5032   2.743   0.208   5.061 -0.3096  0.7185  0.0244
   97POPC   C2E 5033   2.648   0.145   4.958  0.0848  0.3815 -0.1348
   97POPC   C2F 5034   2.501   0.188   4.961 -0.0992 -0.2293 -0.3005
   97POPC   C2G 5035   2.416   0.110   4.862 -0.1016 -0.3156 -0.2303
   97POPC   C2H 5036   2.446   0.150   4.717 -0.4376  0.0480 -0.2013
   97POPC   C2I 5037   2.398   0.293   4.689  0.2255  0.2931 -0.1078
   97POPC   C2J 5038   2.247   0.306   4.712  0.2537 -0.2915  0.4366
   97POPC   C2K 5039   2.193   0.442   4.670 -0.2171 -0.5372  0.2400
   97POPC   C2L 5040   2.059   0.437   4.596 -0.0677 -0.2656 -0.0515
   97POPC   C2M 5041   2.065   0.356   4.467  0.2102 -0.7534  0.2641
   97POPC   C2N 5042   1.951   0.364   4.365  0.4789  0.2654  0.0280
   97POPC   C2O 5043   1.827   0.302   4.430  0.1386  0.1231 -0.7495
   97POPC   C2P 5044   1.730   0.264   4.318 -0.3227  0.3616 -0.4360
   98POPC   CN1 5045   0.980   1.570   0.039 -0.0269  0.3471  0.0981
   98POPC   CN2 5046   1.138   1.513   0.194 -0.0294  0.0238  0.2776
   98POPC   CN3 5047   1.067   1.349   0.030 -0.0051  0.5214  0.3320
   98POPC   NTM 5048   1.024   1.456   0.121 -0.2634  0.4210  0.3302
   98POPC    CA 5049   0.921   1.425   0.221  0.2439 -0.2114  0.6592
   98POPC    CB 5050   0.784   1.376   0.173  0.4648  0.0665 -0.2624
   98POPC    OA 5051   0.789   1.263   0.086  0.0407 -0.2838  0.1670
   98POPC     P 5052   0.668   1.275   5.980  0.1151  0.0806  0.1239
   98POPC    OB 5053   0.542   1.261   0.057  0.0014  0.4626  0.0099
   98POPC    OC 5054   0.706   1.175   5.878 -0.6494 -0.2938  0.2028
   98POPC    OD 5055   0.695   1.415   5.904  0.3938 -0.0804 -0.0761
   98POPC    CC 5056   0.641   1.432   5.773  0.1067 -0.3906 -0.0011
   98POPC    CD 5057   0.748   1.506   5.692 -0.1023  0.2938  0.3473
   98POPC    OE 5058   0.692   1.574   5.579  0.7456  0.0815 -0.2023
   98POPC   C1A 5059   0.666   1.704   5.587 -0.7678 -0.2205 -0.0241
   98POPC    OF 5060   0.646   1.766   5.691 -0.8306  0.5374 -0.4809
   98POPC   C1B 5061   0.624   1.753   5.453  0.0698 -0.2338 -0.2957
   98POPC   C1C 5062   0.742   1.761   5.356  0.1790  0.5181 -0.1132
   98POPC   C1D 5063   0.711   1.821   5.219 -0.2534  0.3242 -0.1017
   98POPC   C1E 5064   0.759   1.731   5.105 -0.0061  0.1164  0.1659
   98POPC   C1F 5065   0.912   1.740   5.093 -0.0131 -0.0582 -0.0411
   98POPC   C1G 5066   0.942   1.670   4.960 -0.1470  0.3428 -0.2817
   98POPC   C1H 5067   1.088   1.629   4.942 -0.0872  0.2087  0.4945
   98POPC   C1I 5068   1.116   1.548   4.815 -0.0608  0.1955  0.5090
   98POPC   C1J 5069   1.189   1.591   4.712 -0.2180 -0.2195  0.2236
   98POPC   C1K 5070   1.261   1.726   4.712 -0.1089 -0.2773  0.1781
   98POPC   C1L 5071   1.306   1.775   4.575 -0.0257  0.1013  0.3388
   98POPC   C1M 5072   1.347   1.921   4.555 -0.0912 -0.0271 -0.8123
   98POPC   C1N 5073   1.385   1.939   4.408 -0.1588 -0.3944 -0.8754
   98POPC   C1O 5074   1.269   1.965   4.312 -0.1865  0.7859 -0.5299
   98POPC   C1P 5075   1.309   1.939   4.167  0.3038 -0.5951 -0.1542
   98POPC   C1Q 5076   1.192   1.937   4.068  0.2429 -0.3827 -0.0852
   98POPC   C1R 5077   1.228   1.939   3.920  0.4949  0.5645 -0.0185
   98POPC    CE 5078   0.867   1.411   5.686 -0.4549 -0.1195 -0.1396
   98POPC    OG 5079   0.862   1.286   5.617 -0.0197 -0.2465  0.0528
   98POPC   C2A 5080   0.956   1.198   5.650  0.3571 -0.0560 -0.4901
   98POPC    OH 5081   1.034   1.204   5.745  0.0033 -0.1408 -0.1917
   98POPC   C2B 5082   0.954   1.080   5.561  0.8514 -0.2533 -0.2394
   98POPC   C2C 5083   0.814   1.022   5.539  0.6947 -0.0163  0.1334
   98POPC   C2D 5084   0.825   0.879   5.485 -0.0256 -0.1769  0.4090
   98POPC   C2E 5085   0.870   0.869   5.339 -0.3088 -0.3172  0.3293
   98POPC   C2F 5086   0.768   0.918   5.236  0.2467  0.0792 -0.0366
   98POPC   C2G 5087   0.831   0.899   5.097 -0.0674 -0.9108 -0.0509
   98POPC   C2H 5088   0.754   0.965   4.983 -0.7056 -0.0887  0.8299
   98POPC   C2I 5089   0.612   0.909   4.970 -0.4970 -0.4576  0.0271
   98POPC   C2J 5090   0.546   0.966   4.845  0.0967  0.0077 -0.0772
   98POPC   C2K 5091   0.395   0.945   4.829  0.0056  0.2264  0.4959
   98POPC   C2L 5092   0.350   1.017   4.702  0.1202 -0.2422  0.1899
   98POPC   C2M 5093   0.368   0.920   4.584 -0.8079 -0.7598  0.4621
   98POPC   C2N 5094   0.350   0.975   4.443 -0.1522 -0.0384  0.6504
   98POPC   C2O 5095   0.212   0.952   4.382  0.0117  0.2300  0.1695
   98POPC   C2P 5096   0.193   0.808   4.334 -0.1898  0.2147  0.2928
   99POPC   CN1 5097   3.703   1.651   5.784  0.3035 -0.2120  0.1214
   99POPC   CN2 5098   3.534   1.824   5.806 -0.6399 -0.7072 -0.3029
   99POPC   CN3 5099   3.566   1.690   5.986 -0.2858  0.1655 -0.2898
   99POPC   NTM 5100   3.572   1.686   5.839  0.0630 -0.5101 -0.2603
   99POPC    CA 5101   3.463   1.602   5.787 -0.8307  0.0705  0.6401
   99POPC    CB 5102   3.460   1.451   5.812 -0.0843 -0.0569 -0.0219
   99POPC    OA 5103   3.565   1.374   5.754  0.0035  0.2321 -0.2480
   99POPC     P 5104   3.582   1.231   5.827 -0.0338  0.2350 -0.2335
   99POPC    OB 5105   3.520   1.227   5.961  0.2570 -0.5765 -0.1184
   99POPC    OC 5106   3.715   1.170   5.803 -0.0565  0.2168 -0.3152
   99POPC    OD 5107   3.466   1.162   5.740 -0.6078 -0.0044  0.7104
   99POPC    CC 5108   3.515   1.077   5.636 -0.7146  0.2681  0.4380
   99POPC    CD 5109   3.461   1.134   5.505  0.0308 -0.0239 -0.0036
   99POPC    OE 5110   3.449   1.038   5.400 -0.3652  0.0175  0.0027
   99POPC   C1A 5111   3.329   0.985   5.375 -0.6429  0.4824  0.3407
   99POPC    OF 5112   3.244   0.981   5.464 -0.6225  0.0053  0.3408
   99POPC   C1B 5113   3.322   0.914   5.245 -0.5500  0.0541  0.5680
   99POPC   C1C 5114   3.261   1.011   5.144 -0.0257  0.1514  0.3410
   99POPC   C1D 5115   3.255   0.963   4.999  0.1461  0.2175  0.3119
   99POPC   C1E 5116   3.151   1.043   4.920  0.2012 -0.0590 -0.0426
   99POPC   C1F 5117   3.185   1.015   4.773  0.3061  0.7032 -0.1640
   99POPC   C1G 5118   3.066   1.063   4.690 -0.5204 -1.2472 -0.1489
   99POPC   C1H 5119   3.089   1.024   4.544  0.2208  0.1885 -0.4343
   99POPC   C1I 5120   3.041   1.138   4.453  0.2022  0.2681 -0.3246
   99POPC   C1J 5121   3.110   1.168   4.344  0.3591  0.3449 -0.2059
   99POPC   C1K 5122   3.221   1.082   4.285  0.4924  0.3458  0.0447
   99POPC   C1L 5123   3.270   1.153   4.158  0.0064  0.0955 -0.2854
   99POPC   C1M 5124   3.370   1.260   4.203  0.4054 -0.3523 -0.1071
   99POPC   C1N 5125   3.454   1.286   4.078  0.1734  0.0368 -0.1811
   99POPC   C1O 5126   3.560   1.394   4.103 -0.3694  0.4841  0.2102
   99POPC   C1P 5127   3.696   1.368   4.040 -0.4111  0.0864  0.2829
   99POPC   C1Q 5128   3.670   1.386   3.890 -0.3222 -0.3415  0.2136
   99POPC   C1R 5129   3.752   1.277   3.820  0.0123 -0.5116  0.8557
   99POPC    CE 5130   3.532   1.265   5.468  0.4152 -0.2992 -0.2526
   99POPC    OG 5131   3.465   1.349   5.374 -0.1819 -0.3168  0.1475
   99POPC   C2A 5132   3.349   1.412   5.392 -0.1085 -0.1531  0.0470
   99POPC    OH 5133   3.310   1.435   5.507 -0.2114  0.4268 -0.1024
   99POPC   C2B 5134   3.294   1.480   5.273  0.0486  0.3016  0.2305
   99POPC   C2C 5135   3.204   1.387   5.191  0.5112 -0.0240  0.0928
   99POPC   C2D 5136   3.167   1.445   5.055  0.2235  0.0852  0.2178
   99POPC   C2E 5137   3.285   1.433   4.958  0.0726  0.0368  0.0394
   99POPC   C2F 5138   3.209   1.468   4.830 -0.0581  0.0845  0.1297
   99POPC   C2G 5139   3.284   1.405   4.712 -0.0106 -0.3280  0.3806
   99POPC   C2H 5140   3.388   1.506   4.665  0.1964 -0.4977  0.4699
   99POPC   C2I 5141   3.462   1.469   4.536 -0.2736  0.1527  0.0042
   99POPC   C2J 5142   3.589   1.547   4.501 -0.2274  0.2318  0.3399
   99POPC   C2K 5143   3.705   1.511   4.595  0.1609 -0.1157 -0.2609
   99POPC   C2L 5144   3.793   1.636   4.602  0.2648 -0.2083  0.0637
   99POPC   C2M 5145   3.922   1.602   4.678 -0.1654 -0.3374  0.7474
   99POPC   C2N 5146   4.009   1.720   4.723  0.4962 -0.3360 -0.4889
   99POPC   C2O 5147   3.913   1.821   4.785  0.5346 -0.4122 -0.3071
   99POPC   C2P 5148   3.974   1.959   4.809  0.0218 -0.1599 -0.4432
  100POPC   CN1 5149   6.115   0.272   5.944  0.3544  0.2606 -0.3460
  100POPC   CN2 5150   5.943   0.305   5.793  0.1170 -0.1922  0.3546
  100POPC   CN3 5151   6.081   0.485   5.851  0.2931  0.2030  0.0888
  100POPC   NTM 5152   6.010   0.368   5.907  0.1952  0.2510  0.0643
  100POPC    CA 5153   5.904   0.402   0.003  0.3890 -0.4143  0.5173
  100POPC    CB 5154   5.958   0.448   0.138  0.0819 -0.6175  0.7094
  100POPC    OA 5155   6.028   0.572   0.136 -0.3689 -0.3753 -0.4129
  100POPC     P 5156   5.956   0.713   0.168 -0.0600 -0.3212  0.0390
  100POPC    OB 5157   6.065   0.804   0.210 -0.4985  0.0891  0.2917
  100POPC    OC 5158   5.835   0.681   0.247 -0.0563 -0.9569 -0.1999
  100POPC    OD 5159   5.908   0.735   0.017 -0.0986 -0.5395  0.0184
  100POPC    CC 5160   5.784   0.804   5.995  0.0795 -0.2877 -0.2058
  100POPC    CD 5161   5.690   0.753   5.886 -0.2323  0.4450 -0.2893
  100POPC    OE 5162   5.737   0.755   5.752 -0.4859  0.0182 -0.3875
  100POPC   C1A 5163   5.769   0.643   5.688  0.3182 -0.0745  0.1679
  100POPC    OF 5164   5.760   0.534   5.745 -0.2360  0.0221  0.2679
  100POPC   C1B 5165   5.793   0.659   5.543  0.0346 -0.2743  0.0983
  100POPC   C1C 5166   5.932   0.613   5.500  0.4319  0.6046  0.4167
  100POPC   C1D 5167   5.936   0.606   5.347  0.3582 -0.0240  0.4409
  100POPC   C1E 5168   6.067   0.533   5.316 -0.3364 -0.8141 -0.7090
  100POPC   C1F 5169   6.109   0.516   5.170  0.0487  0.4550 -0.7554
  100POPC   C1G 5170   6.002   0.449   5.084 -0.5903  0.3709  0.0851
  100POPC   C1H 5171   6.039   0.408   4.941 -0.5793  0.3864  0.0837
  100POPC   C1I 5172   6.152   0.306   4.930 -0.6438  0.3389 -0.1429
  100POPC   C1J 5173   6.143   0.183   4.879 -0.1988  0.4429 -0.4754
  100POPC   C1K 5174   6.008   0.118   4.850  0.0623  0.0240 -0.7644
  100POPC   C1L 5175   5.971   0.131   4.702 -0.1490 -0.2533 -0.7350
  100POPC   C1M 5176   5.830   0.073   4.685 -0.2961  0.0030 -0.3912
  100POPC   C1N 5177   5.715   0.166   4.725 -0.1387  0.0352 -0.0101
  100POPC   C1O 5178   5.695   0.274   4.619 -0.5900  0.0775  0.1139
  100POPC   C1P 5179   5.610   0.220   4.505  0.0574 -0.4106 -0.1459
  100POPC   C1Q 5180   5.621   0.317   4.387  0.3684 -0.4217 -0.1258
  100POPC   C1R 5181   5.748   0.307   4.301  0.6017 -0.7327  0.2504
  100POPC    CE 5182   5.559   0.821   5.925 -0.0745  0.3339  0.4573
  100POPC    OG 5183   5.559   0.962   5.900 -0.3467  0.2541 -0.0034
  100POPC   C2A 5184   5.465   1.013   5.821 -0.1125  0.1043 -0.3808
  100POPC    OH 5185   5.363   0.955   5.783 -0.2693  0.2832 -0.2328
  100POPC   C2B 5186   5.474   1.159   5.801  0.0626  0.1575  0.0789
  100POPC   C2C 5187   5.502   1.202   5.657 -0.3983  0.2573  0.0156
  100POPC   C2D 5188   5.638   1.145   5.614 -0.3537  0.4019 -0.0365
  100POPC   C2E 5189   5.669   1.162   5.466  1.0962 -0.2550  0.1731
  100POPC   C2F 5190   5.664   1.025   5.398 -0.1602 -0.1091 -0.0643
  100POPC   C2G 5191   5.683   1.042   5.247 -0.4393 -0.2568 -0.1152
  100POPC   C2H 5192   5.715   0.906   5.186 -0.5251 -0.5448  0.4790
  100POPC   C2I 5193   5.693   0.898   5.035  0.1055  0.6431  0.3109
  100POPC   C2J 5194   5.757   0.773   4.974 -0.2957  0.7614 -0.3630
  100POPC   C2K 5195   5.756   0.766   4.821  0.5990  0.1756 -0.3529
  100POPC   C2L 5196   5.625   0.745   4.745  0.3744  0.1401  0.0412
  100POPC   C2M 5197   5.645   0.746   4.594 -0.2665 -0.2374 -0.0530
  100POPC   C2N 5198   5.511   0.739   4.521 -0.1610 -0.4741 -0.2237
  100POPC   C2O 5199   5.527   0.752   4.369  0.1398 -0.0905 -0.1611
  100POPC   C2P 5200   5.590   0.885   4.331  0.5566 -0.2099  0.1035
  101POPC   CN1 5201   5.626   2.182   5.810 -0.0117 -0.3539 -0.6445
  101POPC   CN2 5202   5.421   2.116   5.879  0.5401 -0.4584  0.0309
  101POPC   CN3 5203   5.432   2.255   5.677 -0.4231 -0.5263  0.1362
  101POPC   NTM 5204   5.487   2.229   5.811  0.0509 -0.1803  0.0133
  101POPC    CA 5205   5.490   2.347   5.898 -0.4618 -0.2379  0.1148
  101POPC    CB 5206   5.366   2.434   5.917 -0.2768  0.0833 -0.1342
  101POPC    OA 5207   5.246   2.356   5.924  0.1158 -0.5397 -0.2922
  101POPC     P 5208   5.120   2.456   5.930  0.3485 -0.2687  0.1492
  101POPC    OB 5209   5.144   2.576   0.014 -0.9931 -0.2169  0.4660
  101POPC    OC 5210   5.008   2.365   5.961 -0.3250  0.4729 -0.0771
  101POPC    OD 5211   5.125   2.505   5.776 -0.4385 -0.1157  0.1699
  101POPC    CC 5212   5.033   2.427   5.699 -0.2019 -0.0781 -0.1491
  101POPC    CD 5213   5.092   2.383   5.564  0.2586  0.1332 -0.0211
  101POPC    OE 5214   5.102   2.483   5.463  0.2074  0.3047  0.1430
  101POPC   C1A 5215   5.198   2.467   5.372  0.1150  0.1671  0.0697
  101POPC    OF 5216   5.270   2.368   5.364  0.1346  0.1932 -0.0873
  101POPC   C1B 5217   5.210   2.596   5.299 -0.5303  0.1941  0.0072
  101POPC   C1C 5218   5.187   2.564   5.151 -0.0136  0.2428 -0.0825
  101POPC   C1D 5219   5.228   2.672   5.051 -0.1034  0.2437 -0.1184
  101POPC   C1E 5220   5.198   2.629   4.907 -0.5863 -0.3155  0.1431
  101POPC   C1F 5221   5.321   2.647   4.817 -0.6190  0.1413  0.1889
  101POPC   C1G 5222   5.262   2.635   4.676  0.0658 -0.5102 -0.0476
  101POPC   C1H 5223   5.367   2.676   4.573 -0.3670  0.0796 -0.2622
  101POPC   C1I 5224   5.306   2.705   4.436 -0.5384  0.6421 -0.0680
  101POPC   C1J 5225   5.338   2.632   4.330  0.2852 -0.6813  1.0509
  101POPC   C1K 5226   5.454   2.533   4.343  0.2769 -0.7739  0.4453
  101POPC   C1L 5227   5.510   2.493   4.206  0.6397  0.2171  0.2991
  101POPC   C1M 5228   5.613   2.380   4.209  0.0885 -0.3003 -0.2596
  101POPC   C1N 5229   5.739   2.426   4.282 -0.0529  0.3218 -0.4008
  101POPC   C1O 5230   5.843   2.314   4.294 -0.4165  0.0839  0.5704
  101POPC   C1P 5231   5.985   2.366   4.316 -0.3090  0.0245  0.0278
  101POPC   C1Q 5232   6.094   2.263   4.346  0.0848  0.6362  0.7434
  101POPC   C1R 5233   6.119   2.168   4.228 -0.4968  0.4537  0.7634
  101POPC    CE 5234   5.013   2.257   5.525 -0.1068  0.2832  0.2276
  101POPC    OG 5235   4.883   2.277   5.469 -0.2161 -0.1508  0.3239
  101POPC   C2A 5236   4.866   2.258   5.339  0.2448  0.1805  0.2144
  101POPC    OH 5237   4.919   2.162   5.283  0.1481  0.0118  0.4111
  101POPC   C2B 5238   4.761   2.340   5.274 -0.4784 -0.7796  0.1558
  101POPC   C2C 5239   4.782   2.341   5.122  0.1906  0.0912  0.2491
  101POPC   C2D 5240   4.697   2.443   5.047  0.0656 -0.2002 -0.0052
  101POPC   C2E 5241   4.689   2.409   4.898 -0.2118  0.5789 -0.1698
  101POPC   C2F 5242   4.820   2.432   4.822  0.1593 -0.3168  0.1992
  101POPC   C2G 5243   4.822   2.345   4.696 -0.0585 -0.2699  0.1633
  101POPC   C2H 5244   4.949   2.370   4.614 -0.2174  0.0057  0.0011
  101POPC   C2I 5245   4.914   2.371   4.465 -0.1743  0.1572 -0.0088
  101POPC   C2J 5246   5.036   2.375   4.373 -0.3143  0.5112 -0.1801
  101POPC   C2K 5247   4.976   2.362   4.233 -0.4866  0.0476 -0.0656
  101POPC   C2L 5248   5.084   2.399   4.130 -0.1006 -0.0796  0.2911
  101POPC   C2M 5249   5.032   2.389   3.987 -0.3837  0.2911  0.3661
  101POPC   C2N 5250   5.130   2.464   3.897 -0.0803 -0.3973  0.1114
  101POPC   C2O 5251   5.084   2.459   3.751  0.4324 -0.1503 -0.0627
  101POPC   C2P 5252   5.174   2.555   3.673 -0.2646  0.7097  0.1740
  102POPC   CN1 5253   5.455   5.990   0.134 -0.1582  0.4842  0.2544
  102POPC   CN2 5254   5.619   5.896   0.274  0.2193 -0.0140  0.4851
  102POPC   CN3 5255   5.562   5.772   0.080  0.2325  0.5518  0.0525
  102POPC   NTM 5256   5.509   5.862   0.183  0.3707  0.6303  0.0560
  102POPC    CA 5257   5.411   5.796   0.271  0.0674  0.3601 -0.4784
  102POPC    CB 5258   5.271   5.772   0.214 -0.1522  0.6184 -0.0554
  102POPC    OA 5259   5.265   5.694   0.094  0.0492  0.1254  0.2520
  102POPC     P 5260   5.127   5.710   0.014  0.3221  0.1694 -0.2120
  102POPC    OB 5261   5.029   5.763   0.111  0.1621  0.2682 -0.4244
  102POPC    OC 5262   5.098   5.599   5.921 -0.3121  0.0764  0.0927
  102POPC    OD 5263   5.169   5.845   5.937  0.0679  0.4183  0.0819
  102POPC    CC 5264   5.263   5.797   5.840 -0.2000  0.2777 -0.1099
  102POPC    CD 5265   5.318   5.890   5.731  0.0396  0.0322 -0.1983
  102POPC    OE 5266   5.373   6.012   5.781 -0.0014 -0.0929  0.1593
  102POPC   C1A 5267   5.504   6.022   5.802  0.0932  0.0150 -0.4567
  102POPC    OF 5268   5.569   5.918   5.812  0.2593  0.1960  0.4306
  102POPC   C1B 5269   5.545   6.160   5.837 -1.0164  0.2925 -0.2092
  102POPC   C1C 5270   5.532   6.264   5.726  0.0716  0.4019 -0.2450
  102POPC   C1D 5271   5.542   0.068   5.778 -0.0292  0.2768  0.1248
  102POPC   C1E 5272   5.518   0.172   5.668  0.3315 -0.1108 -0.3237
  102POPC   C1F 5273   5.378   0.151   5.611  0.1375 -0.3355  0.2348
  102POPC   C1G 5274   5.368   0.256   5.500  0.2542 -0.2223  0.3314
  102POPC   C1H 5275   5.245   0.234   5.412  0.5673  0.2646 -0.2267
  102POPC   C1I 5276   5.198   0.348   5.321 -0.0772  0.2581  0.0914
  102POPC   C1J 5277   5.089   0.344   5.245  0.1359 -0.6335 -0.1704
  102POPC   C1K 5278   4.994   0.224   5.236  0.0437 -0.6007  0.3570
  102POPC   C1L 5279   4.936   0.202   5.096 -0.4892  0.5915  0.3765
  102POPC   C1M 5280   4.844   0.080   5.097  0.2978 -0.0225 -0.2692
  102POPC   C1N 5281   4.708   0.110   5.160  0.3583  0.6332 -0.4441
  102POPC   C1O 5282   4.610   6.334   5.138 -0.4861  1.2371  0.0932
  102POPC   C1P 5283   4.495   6.337   5.240 -0.2966  0.5615  0.3332
  102POPC   C1Q 5284   4.414   0.127   5.233 -0.3917  0.4867 -0.0091
  102POPC   C1R 5285   4.299   0.144   5.333 -0.3865 -0.6860  0.2053
  102POPC    CE 5286   5.205   5.920   5.633  0.2321 -0.0192 -0.4362
  102POPC    OG 5287   5.096   5.829   5.617  0.1640  0.0353 -0.2915
  102POPC   C2A 5288   4.985   5.878   5.563  0.1679 -0.2845 -0.5939
  102POPC    OH 5289   4.969   5.999   5.574 -0.0981 -0.4097  0.5048
  102POPC   C2B 5290   4.889   5.770   5.529  0.0584 -0.5853  0.6055
  102POPC   C2C 5291   4.883   5.735   5.380  0.3586  0.4452  0.3367
  102POPC   C2D 5292   4.819   5.853   5.308  0.0931  0.1321  0.0551
  102POPC   C2E 5293   4.747   5.816   5.177 -0.2591  0.1878  0.2306
  102POPC   C2F 5294   4.660   5.934   5.134 -0.1258  0.2670  0.1780
  102POPC   C2G 5295   4.609   5.932   4.990  0.3042  0.1217  0.0234
  102POPC   C2H 5296   4.534   5.806   4.946  0.1893  0.3087 -0.3227
  102POPC   C2I 5297   4.440   5.852   4.834 -0.1581  0.3926  0.0018
  102POPC   C2J 5298   4.365   5.723   4.801  0.5090 -0.1837  0.6815
  102POPC   C2K 5299   4.230   5.758   4.737  0.8768  0.1404  0.0633
  102POPC   C2L 5300   4.154   5.631   4.698  0.2557  0.2831  0.7781
  102POPC   C2M 5301   4.021   5.644   4.623  0.2341 -0.4912  0.6743
  102POPC   C2N 5302   3.926   5.721   4.715 -0.0619  0.1627 -0.1586
  102POPC   C2O 5303   3.791   5.740   4.645 -0.1715  0.3458  0.1006
  102POPC   C2P 5304   3.809   5.830   4.523 -0.2149  0.1463 -0.0536
  103POPC   CN1 5305   4.265   0.899   0.361 -0.2175  0.1341 -0.0925
  103POPC   CN2 5306   4.246   0.662   0.349  0.0128 -0.0667 -0.2110
  103POPC   CN3 5307   4.205   0.797   0.159 -0.3667 -0.0675 -0.0844
  103POPC   NTM 5308   4.186   0.788   0.304 -0.0330 -0.0261 -0.0378
  103POPC    CA 5309   4.044   0.803   0.338 -0.0128  0.0408  0.0160
  103POPC    CB 5310   3.938   0.710   0.278 -0.1369 -0.0486  0.3724
  103POPC    OA 5311   3.953   0.571   0.306  0.0361 -0.1000  0.0257
  103POPC     P 5312   3.859   0.481   0.212  0.0401 -0.0272 -0.0475
  103POPC    OB 5313   3.742   0.569   0.188 -0.7301 -0.8901  0.4727
  103POPC    OC 5314   3.855   0.344   0.268 -0.0191  0.1858  0.4683
  103POPC    OD 5315   3.948   0.470   0.078  0.4577  0.3464  0.1992
  103POPC    CC 5316   3.883   0.531   5.967 -0.1018 -0.0437  0.3063
  103POPC    CD 5317   3.980   0.612   5.880 -0.5121 -0.0672 -0.1788
  103POPC    OE 5318   3.928   0.720   5.802  0.6632  0.2813 -0.5055
  103POPC   C1A 5319   3.920   0.843   5.852  0.2200  0.1146 -0.1614
  103POPC    OF 5320   3.940   0.864   5.971 -0.0342  0.4459 -0.1771
  103POPC   C1B 5321   3.893   0.933   5.738  0.1213  0.2748 -0.0128
  103POPC   C1C 5322   4.023   0.980   5.672  0.1262 -0.1970 -0.3463
  103POPC   C1D 5323   3.986   1.092   5.575 -0.1375  0.0031 -0.0123
  103POPC   C1E 5324   4.102   1.151   5.496  0.4001 -0.3860  0.4808
  103POPC   C1F 5325   4.148   1.043   5.397  0.0902  0.0307 -0.1225
  103POPC   C1G 5326   4.252   1.090   5.296 -0.1005  0.1559 -0.2618
  103POPC   C1H 5327   4.293   0.972   5.208 -0.0775  0.1176 -0.1999
  103POPC   C1I 5328   4.189   0.946   5.099 -0.2694 -0.3667  0.0956
  103POPC   C1J 5329   4.220   0.881   4.987 -0.0288  0.3478 -0.2611
  103POPC   C1K 5330   4.358   0.822   4.953 -0.1420  0.0227 -0.1593
  103POPC   C1L 5331   4.386   0.790   4.806 -0.1298  0.2153 -0.1988
  103POPC   C1M 5332   4.387   0.916   4.719  0.3954  0.0082 -0.5036
  103POPC   C1N 5333   4.401   0.898   4.568  0.1142  0.5773 -0.6009
  103POPC   C1O 5334   4.527   0.820   4.530  0.0500  0.3420 -0.3319
  103POPC   C1P 5335   4.512   0.764   4.389 -0.3662 -0.3061 -0.0392
  103POPC   C1Q 5336   4.619   0.670   4.333 -0.3294 -0.1590 -0.2202
  103POPC   C1R 5337   4.763   0.721   4.344 -0.4839  0.1631  0.3564
  103POPC    CE 5338   4.068   0.513   5.803 -0.1670  0.5331 -0.5726
  103POPC    OG 5339   3.986   0.423   5.728  0.6385 -0.5851 -0.1494
  103POPC   C2A 5340   4.039   0.316   5.670  0.1076 -0.5167 -0.7762
  103POPC    OH 5341   4.158   0.289   5.686  0.0956 -0.1764 -0.0712
  103POPC   C2B 5342   3.952   0.236   5.581 -0.5108  0.0408 -0.6792
  103POPC   C2C 5343   3.940   0.286   5.437  0.2103  0.5130 -0.5819
  103POPC   C2D 5344   3.855   0.204   5.339  0.2452 -0.0919 -0.1140
  103POPC   C2E 5345   3.836   0.302   5.223  0.2242  0.0193 -0.0170
  103POPC   C2F 5346   3.752   0.231   5.117  0.5084  0.1995 -0.3646
  103POPC   C2G 5347   3.731   0.339   5.010 -0.2199  0.2063 -0.2225
  103POPC   C2H 5348   3.661   0.274   4.891 -0.2602 -0.3218  0.0873
  103POPC   C2I 5349   3.683   0.358   4.765  0.4063 -0.4419  0.1195
  103POPC   C2J 5350   3.653   0.269   4.644 -0.0097 -0.2408  0.0719
  103POPC   C2K 5351   3.706   0.336   4.517  0.0087 -0.4605 -0.0372
  103POPC   C2L 5352   3.600   0.310   4.410  0.3660 -0.0321 -0.5028
  103POPC   C2M 5353   3.640   0.368   4.275  0.1719  0.0724 -0.5167
  103POPC   C2N 5354   3.545   0.326   4.163  0.0947 -0.3483 -0.2942
  103POPC   C2O 5355   3.396   0.350   4.188  0.2090  0.5026 -0.4245
  103POPC   C2P 5356   3.333   0.407   4.061  0.5263 -0.1926 -0.8982
  104POPC   CN1 5357   1.668   2.002   5.583  0.0676 -0.5027  0.4224
  104POPC   CN2 5358   1.571   1.846   5.428  0.1445 -0.1833 -0.0426
  104POPC   CN3 5359   1.584   2.071   5.365 -0.4761  0.1150 -0.2453
  104POPC   NTM 5360   1.564   1.983   5.481  0.5979 -0.0924 -0.2060
  104POPC    CA 5361   1.427   1.993   5.534  0.8213  0.0709  0.3429
  104POPC    CB 5362   1.382   2.117   5.612  0.5143 -0.0067  0.2899
  104POPC    OA 5363   1.372   2.232   5.529 -0.8900 -0.3205  0.0057
  104POPC     P 5364   1.247   2.328   5.564 -0.5431  0.1658 -0.0769
  104POPC    OB 5365   1.234   2.442   5.471  0.2557 -0.0377 -0.4472
  104POPC    OC 5366   1.247   2.350   5.711 -0.5476  0.1266 -0.0713
  104POPC    OD 5367   1.136   2.222   5.515 -0.2471  0.1907 -0.8054
  104POPC    CC 5368   1.133   2.222   5.372  0.1887  0.3551 -0.8175
  104POPC    CD 5369   1.042   2.124   5.297 -0.1133 -0.0128  0.0246
  104POPC    OE 5370   1.086   2.082   5.168  0.0958 -0.3479  0.2047
  104POPC   C1A 5371   1.178   1.986   5.177  0.5257  0.0665  0.2451
  104POPC    OF 5372   1.218   1.943   5.285  0.8186  0.3218  0.2404
  104POPC   C1B 5373   1.228   1.956   5.040  0.3095 -0.3319  0.2547
  104POPC   C1C 5374   1.311   2.066   4.976 -0.1872  0.0811  0.3126
  104POPC   C1D 5375   1.453   2.084   5.030  0.0346 -0.0245 -0.2299
  104POPC   C1E 5376   1.526   2.185   4.940 -0.1507 -0.2748 -0.6647
  104POPC   C1F 5377   1.584   2.103   4.825  0.2689  0.0647 -0.6928
  104POPC   C1G 5378   1.646   2.201   4.725  0.3671 -0.0714 -0.7658
  104POPC   C1H 5379   1.692   2.140   4.592 -0.0976 -0.4719 -0.7423
  104POPC   C1I 5380   1.716   2.257   4.497  0.2370  0.3079  0.2823
  104POPC   C1J 5381   1.743   2.239   4.368 -0.1851  0.3369  0.1865
  104POPC   C1K 5382   1.734   2.104   4.297 -0.5582  0.6083 -0.2885
  104POPC   C1L 5383   1.713   2.130   4.148  0.2656  0.2139 -0.4799
  104POPC   C1M 5384   1.744   2.013   4.055 -0.1912 -0.1794 -0.1431
  104POPC   C1N 5385   1.752   2.071   3.913  0.3236  0.6480  0.2192
  104POPC   C1O 5386   1.767   1.961   3.808 -0.0250  0.1926  0.6381
  104POPC   C1P 5387   1.832   2.027   3.686 -0.3152 -0.9710 -0.1566
  104POPC   C1Q 5388   1.780   1.981   3.549 -0.3779 -0.4181 -0.3210
  104POPC   C1R 5389   1.857   2.056   3.440  0.4534 -0.2424  0.3694
  104POPC    CE 5390   0.903   2.189   5.303 -0.1127 -0.0387  0.3839
  104POPC    OG 5391   0.835   2.183   5.428 -0.4315 -0.0349  0.2137
  104POPC   C2A 5392   0.714   2.237   5.426 -0.3654  0.0905 -0.9499
  104POPC    OH 5393   0.690   2.335   5.356 -0.3394  0.3844 -0.5548
  104POPC   C2B 5394   0.621   2.194   5.533 -0.0974  0.4747 -0.5548
  104POPC   C2C 5395   0.526   2.097   5.461 -0.1266 -1.1334  1.5531
  104POPC   C2D 5396   0.392   2.171   5.453  0.4025 -0.3383 -0.5360
  104POPC   C2E 5397   0.297   2.100   5.356  0.2320 -0.3410 -0.3672
  104POPC   C2F 5398   0.353   2.116   5.215  0.1067  0.2139 -0.3568
  104POPC   C2G 5399   0.313   2.007   5.115  0.0903 -0.1722  0.0709
  104POPC   C2H 5400   0.386   2.018   4.981  0.6565 -0.4301  0.3492
  104POPC   C2I 5401   0.351   1.900   4.891 -0.2704 -0.2554  0.4673
  104POPC   C2J 5402   0.421   1.902   4.756 -0.0250  0.2923  0.6017
  104POPC   C2K 5403   0.561   1.841   4.747 -0.1282  0.1236  0.1040
  104POPC   C2L 5404   0.597   1.812   4.601 -0.3933  0.9430 -0.1289
  104POPC   C2M 5405   0.744   1.770   4.586 -0.4046  0.8308  0.0687
  104POPC   C2N 5406   0.782   1.744   4.440 -0.0782  0.5520  0.2040
  104POPC   C2O 5407   0.928   1.698   4.424 -0.2079  0.2267 -0.0561
  104POPC   C2P 5408   0.962   1.687   4.276 -0.4123 -0.0579 -0.0821
  105POPC   CN1 5409   0.588   2.573   5.525 -0.1173  0.0765 -0.1025
  105POPC   CN2 5410   0.377   2.563   5.406  0.6046  0.3511 -0.4051
  105POPC   CN3 5411   0.493   2.767   5.409  0.2858  0.5288  0.4139
  105POPC   NTM 5412   0.465   2.646   5.489  0.0128  0.4225  0.1613
  105POPC    CA 5413   0.391   2.684   5.611 -0.0891  0.4162  0.1010
  105POPC    CB 5414   0.267   2.774   5.606 -0.3312  0.0754 -0.0759
  105POPC    OA 5415   0.155   2.731   5.528 -0.1356 -0.1119 -0.2548
  105POPC     P 5416   0.055   2.854   5.498 -0.1353 -0.1567 -0.4455
  105POPC    OB 5417   0.150   2.963   5.465  0.0324 -0.0986  0.2104
  105POPC    OC 5418   6.273   2.839   5.613  0.4249  0.1453  0.0504
  105POPC    OD 5419   0.005   2.772   5.369 -0.0723 -0.8335 -0.0459
  105POPC    CC 5420   0.079   2.813   5.254 -0.2716  0.1321  0.1602
  105POPC    CD 5421   0.034   2.722   5.139  0.3379 -0.4991  0.4120
  105POPC    OE 5422   0.129   2.687   5.038  0.3212  0.0680  0.1929
  105POPC   C1A 5423   0.153   2.557   5.028  0.6807  0.1195  0.3495
  105POPC    OF 5424   0.138   2.476   5.120 -0.8230 -0.3814 -0.2970
  105POPC   C1B 5425   0.237   2.532   4.909  0.2656  0.2755  0.0218
  105POPC   C1C 5426   0.358   2.449   4.951  0.0486  0.0006  0.1053
  105POPC   C1D 5427   0.473   2.540   4.995  0.1430  0.1669 -0.4769
  105POPC   C1E 5428   0.590   2.442   5.004  0.0092  0.0648  0.2580
  105POPC   C1F 5429   0.720   2.512   5.044  0.2642 -0.4676  0.3639
  105POPC   C1G 5430   0.829   2.408   5.016 -0.6509 -1.3798  0.1487
  105POPC   C1H 5431   0.869   2.370   4.873  0.2077  0.3653 -0.0970
  105POPC   C1I 5432   1.000   2.292   4.870  0.1262  0.2437 -0.6253
  105POPC   C1J 5433   1.021   2.225   4.757 -0.7669  0.1177 -0.7238
  105POPC   C1K 5434   0.926   2.232   4.638 -0.8477  0.0737 -0.6623
  105POPC   C1L 5435   0.994   2.198   4.505  0.1496  0.1912 -0.1900
  105POPC   C1M 5436   0.894   2.212   4.390 -0.2209  0.0557  0.1129
  105POPC   C1N 5437   0.887   2.356   4.337 -0.2723  0.0574  0.1245
  105POPC   C1O 5438   0.774   2.379   4.236  0.3262  0.4470 -0.4606
  105POPC   C1P 5439   0.793   2.510   4.160 -0.3281  0.4751 -0.5755
  105POPC   C1Q 5440   0.925   2.546   4.093  0.1185  0.2561  0.1685
  105POPC   C1R 5441   0.910   2.689   4.038  0.1064  0.1890 -0.0048
  105POPC    CE 5442   6.206   2.762   5.086  0.6520 -0.2161 -0.2004
  105POPC    OG 5443   6.203   2.900   5.049 -0.0256 -0.0137  0.5921
  105POPC   C2A 5444   6.120   2.934   4.950  0.1649 -0.3158  0.3264
  105POPC    OH 5445   6.042   2.852   4.902 -0.0869  0.3747 -0.4652
  105POPC   C2B 5446   6.155   3.062   4.885  0.3364 -0.6652 -0.2747
  105POPC   C2C 5447   6.113   3.065   4.738 -0.0598  0.2219 -0.1522
  105POPC   C2D 5448   6.170   3.193   4.676 -0.0201  0.2952  0.0368
  105POPC   C2E 5449   6.111   3.214   4.537  0.5211  0.0919 -0.2269
  105POPC   C2F 5450   6.136   3.353   4.479 -0.0346  0.3551  0.1510
  105POPC   C2G 5451   6.073   3.371   4.340 -0.1902 -0.4080  0.1187
  105POPC   C2H 5452   6.055   3.518   4.304 -0.4104 -0.4578  0.0240
  105POPC   C2I 5453   5.980   3.533   4.171  0.1383  0.1110 -0.2288
  105POPC   C2J 5454   5.954   3.681   4.141  0.1043  0.2499  0.4641
  105POPC   C2K 5455   5.845   3.707   4.037 -0.0730 -0.2917  0.5111
  105POPC   C2L 5456   5.785   3.846   4.059  0.1731 -0.0998 -0.0256
  105POPC   C2M 5457   5.719   3.856   4.197  0.0215  0.7747 -0.1521
  105POPC   C2N 5458   5.619   3.970   4.212  0.1550  0.8433  0.2168
  105POPC   C2O 5459   5.545   3.952   4.345  0.5622 -0.0016  0.3314
  105POPC   C2P 5460   5.482   4.082   4.395  0.0373 -0.1499  0.0639
  106POPC   CN1 5461   1.551   3.673   5.785 -0.5445 -0.3227  0.3953
  106POPC   CN2 5462   1.694   3.602   5.594  0.1901 -0.1820 -0.0211
  106POPC   CN3 5463   1.525   3.456   5.677  0.2785 -0.0647 -0.3194
  106POPC   NTM 5464   1.619   3.563   5.714 -0.1469  0.2330 -0.0967
  106POPC    CA 5465   1.711   3.512   5.816  0.1069  0.5112 -0.1831
  106POPC    CB 5466   1.811   3.399   5.788 -0.3467 -0.0642  0.4502
  106POPC    OA 5467   1.756   3.287   5.719 -0.3357  0.6535 -0.7716
  106POPC     P 5468   1.872   3.197   5.652  0.0018  0.3110  0.2433
  106POPC    OB 5469   1.808   3.073   5.603 -0.3533  0.7455 -0.4103
  106POPC    OC 5470   1.987   3.186   5.743  0.0582 -0.1890  0.1107
  106POPC    OD 5471   1.901   3.292   5.525  0.1065  0.1249  0.1275
  106POPC    CC 5472   1.820   3.259   5.412  0.1055  0.6394 -0.0244
  106POPC    CD 5473   1.835   3.374   5.312 -0.0667  0.3837 -0.3426
  106POPC    OE 5474   1.747   3.368   5.199  0.1279  0.1476 -0.4858
  106POPC   C1A 5475   1.625   3.418   5.219  0.1948  0.0254  0.2765
  106POPC    OF 5476   1.584   3.460   5.327  0.2734  0.3889  0.1637
  106POPC   C1B 5477   1.544   3.413   5.094  0.2761 -0.3892  0.2381
  106POPC   C1C 5478   1.614   3.454   4.965 -0.3446 -0.4004 -0.1030
  106POPC   C1D 5479   1.526   3.412   4.847 -0.3745  0.0846 -0.2557
  106POPC   C1E 5480   1.617   3.424   4.724 -0.3858  0.0112 -0.2715
  106POPC   C1F 5481   1.534   3.373   4.606 -0.4324 -0.9636  0.1680
  106POPC   C1G 5482   1.614   3.401   4.479 -0.4888  0.1274  0.3614
  106POPC   C1H 5483   1.520   3.388   4.359  0.1577 -0.1309 -0.1296
  106POPC   C1I 5484   1.600   3.392   4.229  0.1328  0.0913 -0.1383
  106POPC   C1J 5485   1.541   3.373   4.111  0.2726 -0.6029 -0.1025
  106POPC   C1K 5486   1.394   3.337   4.085  0.2387 -0.2345 -0.4380
  106POPC   C1L 5487   1.361   3.387   3.945 -0.3137  0.4453 -0.0707
  106POPC   C1M 5488   1.212   3.372   3.911 -0.3081  0.3618 -0.0581
  106POPC   C1N 5489   1.103   3.449   3.985 -0.7221 -0.2086 -0.0630
  106POPC   C1O 5490   0.974   3.408   3.913 -0.5483 -0.6002 -0.1528
  106POPC   C1P 5491   0.859   3.495   3.966 -0.0809 -0.3412  0.4533
  106POPC   C1Q 5492   0.730   3.443   3.902 -0.3421  0.4848  0.3025
  106POPC   C1R 5493   0.696   3.317   3.982  0.0155  0.0739 -0.1891
  106POPC    CE 5494   1.979   3.361   5.262 -0.0499  0.7358 -0.3893
  106POPC    OG 5495   2.012   3.244   5.186 -0.0153  0.5854 -0.1442
  106POPC   C2A 5496   2.137   3.200   5.186 -0.1468  0.2027 -0.3109
  106POPC    OH 5497   2.228   3.256   5.248  0.3894 -1.0010  0.0156
  106POPC   C2B 5498   2.165   3.077   5.108 -0.2156 -0.0086 -0.0013
  106POPC   C2C 5499   2.181   3.107   4.959 -0.3286 -0.3544 -0.0832
  106POPC   C2D 5500   2.205   2.981   4.876 -0.1192 -0.2713 -0.1483
  106POPC   C2E 5501   2.217   3.004   4.725  0.3564 -0.0447 -0.0779
  106POPC   C2F 5502   2.274   2.887   4.645 -0.2992 -0.3359 -0.1226
  106POPC   C2G 5503   2.333   2.938   4.514  0.3146 -0.5668  0.0603
  106POPC   C2H 5504   2.358   2.826   4.413  0.7036  0.1054 -0.6004
  106POPC   C2I 5505   2.388   2.867   4.268  0.4304 -0.1486 -0.7318
  106POPC   C2J 5506   2.359   2.749   4.176 -0.9295 -0.3445 -0.0756
  106POPC   C2K 5507   2.376   2.787   4.029  0.1755 -0.4606  0.0126
  106POPC   C2L 5508   2.312   2.693   3.928 -0.3845 -0.0416 -0.0249
  106POPC   C2M 5509   2.275   2.765   3.798  0.5119  0.1515 -0.1726
  106POPC   C2N 5510   2.403   2.815   3.729  0.6482 -0.1297 -0.1286
  106POPC   C2O 5511   2.371   2.885   3.596 -0.1316  0.0589  0.1525
  106POPC   C2P 5512   2.309   3.023   3.623 -0.0415  0.1582 -0.1469
  107POPC   CN1 5513   3.235   0.615   5.563  0.2524 -0.0056 -0.4341
  107POPC   CN2 5514   3.033   0.504   5.520 -0.8226  0.2510  0.1096
  107POPC   CN3 5515   3.057   0.741   5.471  0.3874  0.0625  0.3506
  107POPC   NTM 5516   3.089   0.632   5.564  0.2313 -0.1941  0.1051
  107POPC    CA 5517   3.031   0.663   5.696 -0.4431 -0.0155 -0.2275
  107POPC    CB 5518   3.089   0.593   5.819  0.1704 -0.2063 -0.6228
  107POPC    OA 5519   3.080   0.451   5.827  0.2248 -0.1649  0.1965
  107POPC     P 5520   3.134   0.396   5.969 -0.0811 -0.3475  0.2460
  107POPC    OB 5521   3.105   0.251   5.972 -0.1092 -0.3535 -0.1621
  107POPC    OC 5522   3.090   0.484   0.079  0.1431  0.0908 -0.0104
  107POPC    OD 5523   3.293   0.412   5.944 -0.1544  0.1598  0.1023
  107POPC    CC 5524   3.357   0.299   5.884 -0.6182 -0.0835  0.0612
  107POPC    CD 5525   3.437   0.344   5.761 -0.2496  0.0629  0.3532
  107POPC    OE 5526   3.432   0.237   5.666  0.5025  0.0086  0.3741
  107POPC   C1A 5527   3.445   0.278   5.540  0.1456 -0.4182  0.1968
  107POPC    OF 5528   3.415   0.389   5.496 -0.0116 -0.4651  0.1878
  107POPC   C1B 5529   3.465   0.154   5.461  0.3790 -0.4284  0.2686
  107POPC   C1C 5530   3.348   0.110   5.371 -0.0302  0.6336  0.2616
  107POPC   C1D 5531   3.368   0.164   5.230  0.0518 -0.2244 -0.0588
  107POPC   C1E 5532   3.369   0.312   5.192 -0.3495 -0.3179 -0.4478
  107POPC   C1F 5533   3.224   0.356   5.216 -0.2537 -0.3539  0.2057
  107POPC   C1G 5534   3.209   0.508   5.208  0.7284 -0.2699 -0.1516
  107POPC   C1H 5535   3.231   0.565   5.067 -0.1915 -0.0555 -0.2148
  107POPC   C1I 5536   3.112   0.545   4.974 -0.3131 -0.1996 -0.0301
  107POPC   C1J 5537   3.127   0.553   4.842  0.0119  0.5228  0.0454
  107POPC   C1K 5538   3.262   0.561   4.770 -0.1676 -0.9506 -0.4846
  107POPC   C1L 5539   3.256   0.626   4.632  0.2491 -0.0255 -0.0737
  107POPC   C1M 5540   3.138   0.594   4.539 -0.0677  0.5819  0.1117
  107POPC   C1N 5541   3.135   0.657   4.400  0.4307  1.0075  0.2891
  107POPC   C1O 5542   3.001   0.621   4.336  0.8276 -0.3196  0.1757
  107POPC   C1P 5543   2.972   0.709   4.214  0.1927  0.1354  0.6440
  107POPC   C1Q 5544   2.910   0.839   4.265  0.2384  0.4435 -0.0821
  107POPC   C1R 5545   2.888   0.949   4.160 -0.1880  0.0686 -0.3865
  107POPC    CE 5546   3.567   0.406   5.812 -0.4604  0.2554  0.6556
  107POPC    OG 5547   3.646   0.469   5.712 -0.7349  0.1096  0.3451
  107POPC   C2A 5548   3.607   0.579   5.648 -0.4929  0.0360  0.0659
  107POPC    OH 5549   3.518   0.655   5.687 -0.5170 -0.1473  0.3726
  107POPC   C2B 5550   3.710   0.604   5.545 -0.0536 -0.0609  0.4774
  107POPC   C2C 5551   3.643   0.692   5.440  0.7008 -0.2252 -0.1525
  107POPC   C2D 5552   3.755   0.739   5.346  0.5446  0.3337 -0.0653
  107POPC   C2E 5553   3.711   0.735   5.200  0.0025  0.6363  0.0852
  107POPC   C2F 5554   3.815   0.765   5.091 -0.0273 -0.0606 -0.1423
  107POPC   C2G 5555   3.769   0.743   4.947  0.1836 -0.3795 -0.1611
  107POPC   C2H 5556   3.896   0.755   4.861  0.5224 -0.3483  0.3413
  107POPC   C2I 5557   3.873   0.700   4.720  0.5208 -0.4736  0.3905
  107POPC   C2J 5558   3.991   0.726   4.626  0.1964 -0.0947  0.0886
  107POPC   C2K 5559   3.974   0.664   4.487  0.5141  0.0456 -0.0125
  107POPC   C2L 5560   4.060   0.736   4.382  0.2662  0.3199 -0.0297
  107POPC   C2M 5561   4.013   0.691   4.243  0.2220 -0.0568  0.1052
  107POPC   C2N 5562   4.093   0.759   4.131 -0.2364  0.0432 -0.1627
  107POPC   C2O 5563   4.223   0.693   4.087  0.4214  0.4470  1.1186
  107POPC   C2P 5564   4.307   0.784   3.996  0.3813 -0.6273 -0.0264
  108POPC   CN1 5565   2.398   2.935   5.392  0.8148  0.0855 -0.1482
  108POPC   CN2 5566   2.242   3.095   5.520 -0.0652 -0.4419  0.2155
  108POPC   CN3 5567   2.451   3.157   5.433 -0.4085  0.1104  0.3983
  108POPC   NTM 5568   2.376   3.043   5.489 -0.0379 -0.2930  0.0845
  108POPC    CA 5569   2.446   3.008   5.612 -0.0410 -0.1716  0.1206
  108POPC    CB 5570   2.404   2.882   5.689 -0.7611 -0.0029  0.0069
  108POPC    OA 5571   2.448   2.758   5.632 -0.7714  0.0184 -0.0480
  108POPC     P 5572   2.431   2.638   5.739 -0.3346 -0.2045 -0.2300
  108POPC    OB 5573   2.476   2.705   5.863 -0.2781 -0.3375 -0.1784
  108POPC    OC 5574   2.496   2.517   5.686  0.2510 -0.1580  0.3689
  108POPC    OD 5575   2.273   2.636   5.710 -0.3647 -0.4273 -0.0474
  108POPC    CC 5576   2.249   2.552   5.597 -0.3577 -0.2135 -0.2075
  108POPC    CD 5577   2.225   2.613   5.458  0.0972  0.3012 -0.0670
  108POPC    OE 5578   2.085   2.640   5.446  0.0549  0.1949  0.1757
  108POPC   C1A 5579   2.048   2.742   5.369  0.3237  0.2070  0.0620
  108POPC    OF 5580   2.111   2.848   5.365  0.4915  0.1120  0.1755
  108POPC   C1B 5581   1.906   2.723   5.332  0.1957  0.3061  0.4919
  108POPC   C1C 5582   1.815   2.845   5.342 -0.1012  0.0721  0.6275
  108POPC   C1D 5583   1.815   2.932   5.216 -0.0981 -0.4295  0.2801
  108POPC   C1E 5584   1.758   2.865   5.091  0.4136 -0.1026 -0.1341
  108POPC   C1F 5585   1.708   2.970   4.991 -0.2091 -0.5198 -0.2710
  108POPC   C1G 5586   1.809   3.008   4.882 -0.0740 -0.1095 -0.0088
  108POPC   C1H 5587   1.752   3.097   4.772  0.2792 -0.0761 -0.1651
  108POPC   C1I 5588   1.843   3.083   4.650  0.1214  0.2852 -0.3247
  108POPC   C1J 5589   1.798   3.023   4.540 -0.3260  0.0858 -0.0308
  108POPC   C1K 5590   1.652   2.974   4.535 -0.4759  0.5054  0.2092
  108POPC   C1L 5591   1.616   2.983   4.387  0.0148 -0.1504  0.0483
  108POPC   C1M 5592   1.483   2.917   4.352 -0.2279  0.4733 -0.2218
  108POPC   C1N 5593   1.446   2.923   4.204 -0.1037  0.7168 -0.2428
  108POPC   C1O 5594   1.342   2.816   4.171  0.3346  0.0995  0.3575
  108POPC   C1P 5595   1.282   2.833   4.031  0.3606  0.4764  0.3928
  108POPC   C1Q 5596   1.369   2.757   3.931 -0.3387 -0.1037  0.2189
  108POPC   C1R 5597   1.325   2.787   3.787  0.2185  0.5126  0.1698
  108POPC    CE 5598   2.262   2.497   5.365  0.1793  0.0660  0.2572
  108POPC    OG 5599   2.267   2.535   5.227  0.1142 -0.0571  0.2210
  108POPC   C2A 5600   2.367   2.609   5.181 -0.1616  0.1692 -0.0190
  108POPC    OH 5601   2.451   2.652   5.260  0.1277  0.2607 -0.3715
  108POPC   C2B 5602   2.363   2.639   5.036  0.4253 -0.3308 -0.1389
  108POPC   C2C 5603   2.466   2.558   4.957  0.1879 -0.4419 -0.3353
  108POPC   C2D 5604   2.457   2.571   4.805 -0.3345  0.4069 -0.2367
  108POPC   C2E 5605   2.561   2.488   4.730  0.1723  0.7726  0.0610
  108POPC   C2F 5606   2.547   2.510   4.580  0.2301 -0.0098 -0.0657
  108POPC   C2G 5607   2.675   2.461   4.513  0.2674 -0.0733  0.0523
  108POPC   C2H 5608   2.640   2.445   4.365 -0.0142 -0.4308  0.1546
  108POPC   C2I 5609   2.754   2.384   4.282 -0.3342 -0.1171 -0.5203
  108POPC   C2J 5610   2.765   2.447   4.143  0.0489 -0.3144 -0.5815
  108POPC   C2K 5611   2.650   2.391   4.059 -0.7841  0.0319  0.3043
  108POPC   C2L 5612   2.665   2.435   3.913  0.1546 -0.1684  0.3313
  108POPC   C2M 5613   2.578   2.345   3.825  0.2317 -0.4332  0.5261
  108POPC   C2N 5614   2.592   2.380   3.677 -0.6559 -0.4331  0.4350
  108POPC   C2O 5615   2.525   2.275   3.590  0.1359 -0.3714 -0.2627
  108POPC   C2P 5616   2.529   2.332   3.448  0.3598 -0.4925 -0.3060
  109POPC   CN1 5617   5.473   2.103   5.249  0.6129  0.2423 -0.5528
  109POPC   CN2 5618   5.333   1.956   5.119  0.0867 -0.0881 -0.3874
  109POPC   CN3 5619   5.233   2.093   5.272  0.3785  0.0685 -0.8221
  109POPC   NTM 5620   5.356   2.014   5.252  0.5632  0.3051 -0.6365
  109POPC    CA 5621   5.367   1.902   5.345 -0.4813  0.6649 -0.0554
  109POPC    CB 5622   5.398   1.925   5.493 -0.4876 -0.2454  0.0981
  109POPC    OA 5623   5.308   2.014   5.561 -0.0066  0.3793 -0.0654
  109POPC     P 5624   5.188   1.933   5.632  0.2781  0.0439  0.0343
  109POPC    OB 5625   5.096   2.033   5.690 -0.2424 -0.2862 -0.2111
  109POPC    OC 5626   5.236   1.815   5.708  0.1793  0.2387  0.4046
  109POPC    OD 5627   5.114   1.856   5.512  0.2524  0.2115 -0.0572
  109POPC    CC 5628   5.039   1.739   5.544 -0.5035  0.5640 -0.5086
  109POPC    CD 5629   4.999   1.652   5.424 -0.1713 -0.3205  0.0098
  109POPC    OE 5630   4.918   1.712   5.323 -0.0243  0.0866  0.1293
  109POPC   C1A 5631   4.972   1.789   5.230  0.3120  0.1038  0.3350
  109POPC    OF 5632   5.093   1.790   5.209  0.2269  0.1634 -0.1858
  109POPC   C1B 5633   4.873   1.841   5.132  0.4827  0.0635  0.1408
  109POPC   C1C 5634   4.911   1.894   4.993  0.5270 -0.4584 -0.0460
  109POPC   C1D 5635   4.780   1.917   4.918  0.3895 -0.4709  0.1870
  109POPC   C1E 5636   4.717   1.787   4.867  0.2709 -0.1190 -0.5912
  109POPC   C1F 5637   4.595   1.814   4.779  0.1082 -0.1737 -0.3855
  109POPC   C1G 5638   4.568   1.692   4.692  0.3544 -0.4550 -0.0723
  109POPC   C1H 5639   4.433   1.693   4.619  0.2739 -0.1174  0.0814
  109POPC   C1I 5640   4.415   1.558   4.551 -0.1883  0.0287 -0.0923
  109POPC   C1J 5641   4.363   1.550   4.429  0.1161 -0.5506 -0.1903
  109POPC   C1K 5642   4.309   1.665   4.342  0.2053 -0.7294 -0.4855
  109POPC   C1L 5643   4.163   1.691   4.378  0.4044 -0.2474 -0.0099
  109POPC   C1M 5644   4.087   1.776   4.276  0.3249 -0.2761  0.0249
  109POPC   C1N 5645   4.082   1.703   4.141 -0.3768 -0.0370 -0.0822
  109POPC   C1O 5646   4.012   1.787   4.035 -0.0891 -0.1555 -0.3671
  109POPC   C1P 5647   4.015   1.722   3.896  0.3025  0.0957 -0.4783
  109POPC   C1Q 5648   3.951   1.808   3.787  0.4881  0.1337 -0.5578
  109POPC   C1R 5649   3.964   1.725   3.659 -0.1511 -0.3904 -0.2876
  109POPC    CE 5650   4.953   1.511   5.459  0.0682 -0.4382 -0.1458
  109POPC    OG 5651   4.829   1.510   5.531  0.0252  0.0010 -0.2122
  109POPC   C2A 5652   4.779   1.396   5.578  0.3000  0.0917  0.3068
  109POPC    OH 5653   4.850   1.297   5.564  0.2580  0.1053 -0.0091
  109POPC   C2B 5654   4.643   1.408   5.636  0.1208  0.7192 -0.2231
  109POPC   C2C 5655   4.523   1.357   5.556  0.2839  0.4216 -0.2787
  109POPC   C2D 5656   4.476   1.449   5.444 -0.9708 -0.3072 -0.3672
  109POPC   C2E 5657   4.561   1.433   5.317  0.1461  0.4027  0.2756
  109POPC   C2F 5658   4.510   1.519   5.202  0.1465  0.0317 -0.0059
  109POPC   C2G 5659   4.587   1.478   5.076  0.1468  0.3493 -0.1103
  109POPC   C2H 5660   4.529   1.352   5.012  0.0553 -0.0543  0.7537
  109POPC   C2I 5661   4.386   1.376   4.963  0.2924 -0.5502 -0.2010
  109POPC   C2J 5662   4.325   1.263   4.879 -0.4235 -0.7523  0.5702
  109POPC   C2K 5663   4.195   1.307   4.812 -0.1046 -0.1464  0.3439
  109POPC   C2L 5664   4.127   1.212   4.713  0.3782 -0.8605  0.6891
  109POPC   C2M 5665   4.166   1.256   4.572 -0.5051 -0.4511  0.5643
  109POPC   C2N 5666   4.107   1.170   4.459 -0.1033 -0.1367  0.1096
  109POPC   C2O 5667   4.153   1.232   4.327 -0.2947 -0.0195  0.0984
  109POPC   C2P 5668   4.111   1.151   4.204  0.1044 -0.3551  0.1799
  110POPC   CN1 5669   2.686   1.937   5.537  0.3563 -0.5790 -0.4723
  110POPC   CN2 5670   2.766   1.726   5.617  0.2105  0.0035 -1.2858
  110POPC   CN3 5671   2.551   1.794   5.680  0.5934 -0.7038 -0.3120
  110POPC   NTM 5672   2.686   1.845   5.651  0.4337 -0.1682 -0.1377
  110POPC    CA 5673   2.749   1.911   5.766 -0.3474  0.2533  0.0550
  110POPC    CB 5674   2.897   1.945   5.788 -0.3143 -0.1514  0.4676
  110POPC    OA 5675   2.992   1.841   5.763  0.0565  0.3138 -0.0895
  110POPC     P 5676   3.138   1.894   5.805  0.1574 -0.0983  0.0804
  110POPC    OB 5677   3.159   1.867   5.949  0.2135  0.8404  0.2528
  110POPC    OC 5678   3.154   2.026   5.740 -0.5174 -0.1673 -0.2365
  110POPC    OD 5679   3.217   1.780   5.723  0.0023 -0.2512  0.1406
  110POPC    CC 5680   3.176   1.758   5.588 -0.5797 -0.6207  0.3778
  110POPC    CD 5681   3.211   1.856   5.476 -0.0371 -0.6849  0.4905
  110POPC    OE 5682   3.143   1.827   5.354 -0.2781  0.0552  0.4486
  110POPC   C1A 5683   3.030   1.895   5.331 -0.1620  0.2077  0.3232
  110POPC    OF 5684   2.972   1.949   5.425 -0.1471  0.1597  0.3602
  110POPC   C1B 5685   2.962   1.853   5.207 -0.4765 -0.1575  0.6178
  110POPC   C1C 5686   2.961   1.968   5.106  0.1320 -0.2971  0.4537
  110POPC   C1D 5687   3.092   2.001   5.033  0.1171 -0.6600  0.2556
  110POPC   C1E 5688   3.052   2.112   4.935  0.7443 -0.0374  0.6963
  110POPC   C1F 5689   3.153   2.169   4.836 -0.1150  0.6524  0.2025
  110POPC   C1G 5690   3.105   2.280   4.742 -0.2849  0.3881 -0.0265
  110POPC   C1H 5691   3.035   2.223   4.619  0.0153 -0.7167  0.3044
  110POPC   C1I 5692   3.118   2.127   4.534  0.2285 -0.2218 -0.0564
  110POPC   C1J 5693   3.181   2.157   4.420 -0.5265  0.0192 -0.4147
  110POPC   C1K 5694   3.181   2.302   4.370 -0.2272 -0.0517 -0.6181
  110POPC   C1L 5695   3.154   2.298   4.220 -0.1041  0.0385 -0.6435
  110POPC   C1M 5696   3.270   2.262   4.127  0.3582 -0.3897  0.0907
  110POPC   C1N 5697   3.248   2.293   3.979 -0.1456  0.2090  0.2861
  110POPC   C1O 5698   3.379   2.255   3.909 -0.1396  0.2214  0.2907
  110POPC   C1P 5699   3.355   2.267   3.758  0.0976 -0.1763  0.2211
  110POPC   C1Q 5700   3.497   2.270   3.701 -0.1087  0.2382 -0.2794
  110POPC   C1R 5701   3.506   2.322   3.558  0.5884 -0.2921 -0.4277
  110POPC    CE 5702   3.361   1.882   5.465 -0.1913 -0.0077 -0.1008
  110POPC    OG 5703   3.443   1.767   5.442  0.2862  0.2259  0.3924
  110POPC   C2A 5704   3.569   1.796   5.409  0.2050 -0.0364 -0.1646
  110POPC    OH 5705   3.623   1.885   5.474  0.3429 -0.4715  0.3255
  110POPC   C2B 5706   3.644   1.691   5.337 -0.5029 -0.2700 -0.5710
  110POPC   C2C 5707   3.716   1.751   5.216 -0.2520  0.8647  0.1290
  110POPC   C2D 5708   3.640   1.745   5.083  0.5685  0.0057 -0.3081
  110POPC   C2E 5709   3.507   1.819   5.076  0.0343 -0.9013 -0.0041
  110POPC   C2F 5710   3.459   1.831   4.931 -0.1998  0.2746  0.1591
  110POPC   C2G 5711   3.541   1.942   4.863 -0.3778  0.4599  0.2458
  110POPC   C2H 5712   3.519   1.952   4.712  0.2633  0.7246  0.1656
  110POPC   C2I 5713   3.623   2.026   4.628  0.5547 -0.1614 -0.2699
  110POPC   C2J 5714   3.558   2.051   4.492  0.3632  0.4148 -0.0747
  110POPC   C2K 5715   3.577   1.924   4.409  0.4999  0.1603  0.3456
  110POPC   C2L 5716   3.578   1.961   4.261 -0.3258  0.2490  0.3599
  110POPC   C2M 5717   3.550   1.838   4.175  0.8997  0.1213  0.1279
  110POPC   C2N 5718   3.456   1.861   4.057  0.9468 -0.3725 -0.0071
  110POPC   C2O 5719   3.405   1.737   3.983 -0.2102  0.1837 -0.1597
  110POPC   C2P 5720   3.313   1.655   4.073  0.4145 -0.3093  0.0331
  111POPC   CN1 5721   1.734   0.602   5.204  0.0602 -0.4299  0.5353
  111POPC   CN2 5722   1.522   0.698   5.206 -0.0745 -0.1221  0.3247
  111POPC   CN3 5723   1.723   0.837   5.263  0.2962 -0.4160 -0.1316
  111POPC   NTM 5724   1.655   0.707   5.270  0.0049 -0.2469  0.1783
  111POPC    CA 5725   1.634   0.670   5.411  0.2171 -0.3589  0.1793
  111POPC    CB 5726   1.591   0.772   5.515  0.5512  0.0742 -0.1028
  111POPC    OA 5727   1.457   0.816   5.492  0.5411  0.1599  0.1156
  111POPC     P 5728   1.385   0.915   5.597  0.3059 -0.1630  0.2628
  111POPC    OB 5729   1.484   0.926   5.707  0.1053  0.2825  0.4010
  111POPC    OC 5730   1.245   0.871   5.617  0.1041  0.3888  0.0825
  111POPC    OD 5731   1.388   1.048   5.507  0.1375 -0.2063  0.1950
  111POPC    CC 5732   1.280   1.052   5.412  0.2132 -0.5880  0.0935
  111POPC    CD 5733   1.319   1.015   5.269  0.3348 -0.2955  0.0512
  111POPC    OE 5734   1.366   1.128   5.194  0.1365  0.0740  0.4795
  111POPC   C1A 5735   1.466   1.116   5.107  0.2039  0.1649  0.5447
  111POPC    OF 5736   1.558   1.036   5.126 -0.0214 -0.2727 -0.1971
  111POPC   C1B 5737   1.481   1.237   5.024  0.4787 -0.3726 -0.1971
  111POPC   C1C 5738   1.513   1.192   4.881  0.6518  0.2027 -0.3466
  111POPC   C1D 5739   1.531   1.317   4.796 -0.6441  0.4208 -0.3328
  111POPC   C1E 5740   1.548   1.265   4.653  0.2118 -0.0746 -0.0597
  111POPC   C1F 5741   1.699   1.243   4.640  0.1637 -0.7544  0.4649
  111POPC   C1G 5742   1.745   1.231   4.495  0.2915  0.2095  0.4197
  111POPC   C1H 5743   1.895   1.207   4.480  0.1729 -0.4312  0.2203
  111POPC   C1I 5744   1.941   1.081   4.553  0.7908  0.0163  0.6162
  111POPC   C1J 5745   1.956   0.961   4.498  0.4765 -0.0051  0.5786
  111POPC   C1K 5746   1.944   0.914   4.353  0.3102  0.3185  0.4862
  111POPC   C1L 5747   2.046   0.805   4.320 -0.5170 -0.3014 -0.0662
  111POPC   C1M 5748   2.061   0.779   4.170 -0.2902 -0.3012 -0.0447
  111POPC   C1N 5749   1.925   0.731   4.119 -0.5416  0.2124  0.1301
  111POPC   C1O 5750   1.935   0.720   3.966 -0.5851 -0.0438  0.1444
  111POPC   C1P 5751   2.014   0.599   3.916 -0.0555  0.2845  0.1829
  111POPC   C1Q 5752   1.939   0.469   3.943 -0.1966  0.3521  0.1151
  111POPC   C1R 5753   2.004   0.355   3.864 -0.1416  0.2703  0.2778
  111POPC    CE 5754   1.197   0.943   5.211  0.2270  0.0001 -0.0882
  111POPC    OG 5755   1.170   0.960   5.071 -0.5102 -0.2682  0.0141
  111POPC   C2A 5756   1.247   0.893   4.986 -0.5101 -0.0840 -0.1326
  111POPC    OH 5757   1.309   0.795   5.028 -0.1997  0.1206 -0.1148
  111POPC   C2B 5758   1.235   0.937   4.845 -0.3495  0.4736  0.0262
  111POPC   C2C 5759   1.092   0.944   4.793 -0.6066 -0.4289  0.5854
  111POPC   C2D 5760   1.071   1.005   4.654  0.2610 -0.5972  0.3746
  111POPC   C2E 5761   1.139   0.933   4.538  0.4905  0.4375 -0.1438
  111POPC   C2F 5762   1.129   1.009   4.406  0.1736 -0.2933 -0.5490
  111POPC   C2G 5763   1.202   1.143   4.419 -0.4944 -0.0130  0.4754
  111POPC   C2H 5764   1.172   1.241   4.305  0.1323 -0.1901  0.1530
  111POPC   C2I 5765   1.233   1.381   4.317  0.3087 -0.2437 -0.1071
  111POPC   C2J 5766   1.386   1.384   4.309  0.2877  0.3591 -0.3569
  111POPC   C2K 5767   1.413   1.534   4.311  0.2021  0.3717 -0.0293
  111POPC   C2L 5768   1.542   1.574   4.241  0.1976  0.1312 -0.1772
  111POPC   C2M 5769   1.535   1.553   4.089 -0.2739 -0.0305 -0.1337
  111POPC   C2N 5770   1.678   1.568   4.037 -0.3502  1.0809 -0.0515
  111POPC   C2O 5771   1.690   1.540   3.887 -0.2786 -0.5036  0.2308
  111POPC   C2P 5772   1.838   1.550   3.849 -0.3554 -0.4615 -0.0600
  112POPC   CN1 5773   2.262   1.355   0.022  0.2200  0.2610 -0.1488
  112POPC   CN2 5774   2.208   1.290   5.787  0.2120 -0.5402  0.0098
  112POPC   CN3 5775   2.237   1.517   5.857 -0.2943  0.1699 -0.2897
  112POPC   NTM 5776   2.188   1.384   5.898  0.3868 -0.0958 -0.3316
  112POPC    CA 5777   2.045   1.391   5.930  0.5099  0.8582  0.0555
  112POPC    CB 5778   1.946   1.430   5.820  0.6924 -0.2528 -0.5190
  112POPC    OA 5779   1.966   1.559   5.761  0.2199 -0.0111 -0.1534
  112POPC     P 5780   1.860   1.581   5.642 -0.0704 -0.2264  0.0645
  112POPC    OB 5781   1.756   1.673   5.695 -0.1534 -0.4794  0.3453
  112POPC    OC 5782   1.822   1.447   5.592 -0.4085 -0.0508 -0.1557
  112POPC    OD 5783   1.955   1.651   5.533  0.0723  0.2078  0.4616
  112POPC    CC 5784   2.014   1.773   5.577  0.4786 -0.0030  0.4984
  112POPC    CD 5785   2.103   1.838   5.471 -0.1267 -0.1626 -0.1093
  112POPC    OE 5786   2.144   1.971   5.503  0.0973 -0.2298 -0.1112
  112POPC   C1A 5787   2.251   1.996   5.578 -0.1400 -0.1060  0.1895
  112POPC    OF 5788   2.282   1.913   5.663  0.4865 -0.1507 -0.0817
  112POPC   C1B 5789   2.285   2.139   5.582  0.3971 -0.2397  0.4259
  112POPC   C1C 5790   2.429   2.178   5.546  0.1602 -0.1529 -0.4255
  112POPC   C1D 5791   2.454   2.196   5.396  0.0037  0.7924 -0.3449
  112POPC   C1E 5792   2.404   2.082   5.306  0.0583  0.3192  0.2155
  112POPC   C1F 5793   2.421   2.094   5.154  0.3713 -0.2840  0.2010
  112POPC   C1G 5794   2.562   2.101   5.096  0.2503  0.0733 -0.0492
  112POPC   C1H 5795   2.556   2.100   4.943 -0.4780  0.4939 -0.0296
  112POPC   C1I 5796   2.689   2.155   4.891 -0.1046 -0.0242  0.3552
  112POPC   C1J 5797   2.733   2.100   4.778 -0.1876  0.2695  0.1768
  112POPC   C1K 5798   2.671   1.973   4.719  0.3522  0.0986 -0.0337
  112POPC   C1L 5799   2.758   1.848   4.724 -0.0380 -0.1741  0.0220
  112POPC   C1M 5800   2.864   1.861   4.615  0.0343  0.0588  0.1187
  112POPC   C1N 5801   2.974   1.759   4.642  0.2509  0.2239 -0.1345
  112POPC   C1O 5802   3.083   1.751   4.535  0.0380 -0.0584 -0.3330
  112POPC   C1P 5803   3.039   1.693   4.400  0.2441  0.0854 -0.4646
  112POPC   C1Q 5804   3.026   1.541   4.411 -0.1532  0.1419 -0.1045
  112POPC   C1R 5805   2.990   1.485   4.273 -0.0239  0.3251 -0.2121
  112POPC    CE 5806   2.022   1.823   5.342 -0.6579  0.4272  0.1538
  112POPC    OG 5807   2.077   1.821   5.210 -0.6710  0.0767  0.1545
  112POPC   C2A 5808   1.999   1.766   5.117 -0.5321  0.7151 -0.3444
  112POPC    OH 5809   1.915   1.678   5.132  0.3589 -0.0574  0.2209
  112POPC   C2B 5810   2.052   1.790   4.980 -0.4406 -0.5559 -0.5444
  112POPC   C2C 5811   1.981   1.908   4.914  0.3456  0.1444 -0.1577
  112POPC   C2D 5812   2.040   1.953   4.781  0.3455  0.0889 -0.1766
  112POPC   C2E 5813   2.187   1.993   4.791  0.3449  0.1758 -0.5007
  112POPC   C2F 5814   2.215   2.130   4.729  0.0190  0.4677  0.0047
  112POPC   C2G 5815   2.216   2.126   4.576 -0.8103 -0.1569  0.0055
  112POPC   C2H 5816   2.186   2.263   4.516  0.0963  0.1204  0.1614
  112POPC   C2I 5817   2.167   2.262   4.364 -0.0948  0.6218  0.1802
  112POPC   C2J 5818   2.295   2.243   4.283  0.0363 -0.3301  0.5911
  112POPC   C2K 5819   2.282   2.223   4.132 -0.3164 -0.0112  0.5764
  112POPC   C2L 5820   2.163   2.305   4.081  0.2699  0.3449 -0.2379
  112POPC   C2M 5821   2.184   2.309   3.929 -0.1112 -0.7468 -0.3287
  112POPC   C2N 5822   2.053   2.344   3.859 -0.1872  0.0822  0.2180
  112POPC   C2O 5823   2.069   2.401   3.718  0.3939  0.7603  0.5515
  112POPC   C2P 5824   1.929   2.422   3.660  0.3643 -0.6637  0.0590
  113POPC   CN1 5825   3.674   4.944   5.956  0.0978  0.4039 -0.2732
  113POPC   CN2 5826   3.792   5.037   5.768  0.2879 -0.2088  0.0316
  113POPC   CN3 5827   3.890   4.889   5.937 -0.0928 -0.5138  0.0105
  113POPC   NTM 5828   3.801   5.003   5.911  0.4417 -0.0778  0.0530
  113POPC    CA 5829   3.830   5.120   5.994 -0.4203 -0.0786  0.3686
  113POPC    CB 5830   3.942   5.212   5.944 -0.1066 -0.5117  0.2673
  113POPC    OA 5831   4.061   5.140   5.914 -0.1307 -0.1145 -0.8143
  113POPC     P 5832   4.163   5.251   5.856 -0.0807  0.0770 -0.3582
  113POPC    OB 5833   4.197   5.347   5.964  0.1189 -0.0180 -0.3370
  113POPC    OC 5834   4.099   5.308   5.736  0.4840  0.9650 -0.2475
  113POPC    OD 5835   4.293   5.166   5.815 -0.1032 -0.0833 -0.1023
  113POPC    CC 5836   4.292   5.133   5.676 -0.2922  0.1942 -0.1680
  113POPC    CD 5837   4.209   5.016   5.622 -0.5149  0.3077 -0.0671
  113POPC    OE 5838   4.242   4.883   5.663 -0.2555  0.4293  0.1241
  113POPC   C1A 5839   4.142   4.796   5.668  0.1105 -0.0121 -0.1670
  113POPC    OF 5840   4.026   4.838   5.673  0.1417  0.0368  0.1658
  113POPC   C1B 5841   4.188   4.656   5.682 -0.0101 -0.0132  0.2222
  113POPC   C1C 5842   4.102   4.573   5.588  0.0433  0.0253  0.1392
  113POPC   C1D 5843   4.139   4.425   5.603 -0.1457 -0.0789 -0.4050
  113POPC   C1E 5844   4.060   4.344   5.499 -0.0437 -0.5706 -0.1010
  113POPC   C1F 5845   4.099   4.345   5.351 -0.4255 -0.7656 -0.2029
  113POPC   C1G 5846   3.975   4.308   5.269 -0.5472 -0.9018  0.0409
  113POPC   C1H 5847   4.018   4.293   5.123 -0.0350  0.3415  0.0524
  113POPC   C1I 5848   3.901   4.270   5.027 -0.2213  0.6019  0.2147
  113POPC   C1J 5849   3.907   4.311   4.901  0.0481 -0.9446 -0.2964
  113POPC   C1K 5850   4.024   4.390   4.842 -0.2062 -0.5701 -0.2989
  113POPC   C1L 5851   3.995   4.383   4.692  0.2081 -0.0430 -0.4063
  113POPC   C1M 5852   4.099   4.455   4.606  0.1402  0.1164 -0.3566
  113POPC   C1N 5853   4.113   4.404   4.463  0.1344 -0.4437 -0.1596
  113POPC   C1O 5854   4.248   4.457   4.413 -0.2762  0.2167 -0.5747
  113POPC   C1P 5855   4.301   4.380   4.293 -0.3467  0.0125 -0.4747
  113POPC   C1Q 5856   4.441   4.428   4.254 -0.1610 -0.2575 -0.1525
  113POPC   C1R 5857   4.496   4.353   4.132 -0.3234  0.0083 -0.3892
  113POPC    CE 5858   4.200   5.035   5.471  0.2727  0.1003 -0.1431
  113POPC    OG 5859   4.319   5.056   5.393  0.0568  0.4816 -0.3769
  113POPC   C2A 5860   4.304   5.075   5.263  0.0360  0.4177 -0.3840
  113POPC    OH 5861   4.196   5.069   5.204  0.0042  0.3590 -0.3199
  113POPC   C2B 5862   4.434   5.125   5.213  0.1909  0.7374  0.3258
  113POPC   C2C 5863   4.410   5.210   5.088  0.3387 -0.0995 -0.2810
  113POPC   C2D 5864   4.547   5.249   5.033  0.3098 -0.1477 -0.3872
  113POPC   C2E 5865   4.605   5.374   5.099 -0.6743  0.0057  0.2093
  113POPC   C2F 5866   4.738   5.438   5.057 -0.6317 -0.3533 -0.2129
  113POPC   C2G 5867   4.743   5.436   4.904 -0.4442 -0.1000 -0.2106
  113POPC   C2H 5868   4.873   5.496   4.851 -0.3211 -0.5073 -0.3720
  113POPC   C2I 5869   4.879   5.498   4.698 -0.1846  0.2615 -0.3638
  113POPC   C2J 5870   5.014   5.553   4.653 -0.0408  0.1932 -0.0190
  113POPC   C2K 5871   5.005   5.581   4.503 -0.0509  0.3244  0.0056
  113POPC   C2L 5872   5.114   5.667   4.439  0.1095  0.0326 -0.1170
  113POPC   C2M 5873   5.117   5.638   4.289 -0.6050 -0.4298 -0.0498
  113POPC   C2N 5874   5.189   5.504   4.270 -0.1165 -0.2192  0.2716
  113POPC   C2O 5875   5.335   5.514   4.314 -0.2368  0.5537  0.5053
  113POPC   C2P 5876   5.403   5.377   4.320 -0.5190  0.3833 -0.0809
  114POPC   CN1 5877   0.955   6.330   5.294  0.1966 -0.4580 -0.0816
  114POPC   CN2 5878   1.127   0.132   5.230 -0.2304 -0.1672 -0.1214
  114POPC   CN3 5879   1.179   6.258   5.320  0.3507  0.5545 -0.4798
  114POPC   NTM 5880   1.089   0.034   5.333 -0.0885  0.1452  0.2323
  114POPC    CA 5881   1.084   0.091   5.468  0.1133 -0.3856  0.4641
  114POPC    CB 5882   1.213   0.135   5.537  0.1685  0.0263  0.0970
  114POPC    OA 5883   1.292   0.232   5.467 -0.1276  0.2903  0.1249
  114POPC     P 5884   1.380   0.320   5.569  0.0751  0.0607  0.1498
  114POPC    OB 5885   1.476   0.401   5.490  0.4621 -0.2001  0.3525
  114POPC    OC 5886   1.414   0.244   5.691 -0.4757  0.0195  0.2763
  114POPC    OD 5887   1.272   0.423   5.629  0.3429  0.4173  0.0225
  114POPC    CC 5888   1.228   0.521   5.535  0.1690  0.3120 -0.0063
  114POPC    CD 5889   1.094   0.500   5.466  0.1626 -0.0379  0.1125
  114POPC    OE 5890   1.054   0.571   5.348 -0.3233 -0.3431  0.0873
  114POPC   C1A 5891   0.985   0.499   5.260 -0.2298  0.3117 -0.5382
  114POPC    OF 5892   0.949   0.384   5.286  0.0433  0.3971  0.2716
  114POPC   C1B 5893   0.972   0.584   5.140 -0.0511  0.6207 -0.3390
  114POPC   C1C 5894   1.055   0.541   5.019 -0.4149 -0.2448 -0.2844
  114POPC   C1D 5895   1.003   0.617   4.898  0.1628  0.0555 -0.3448
  114POPC   C1E 5896   0.879   0.551   4.837 -0.1119  0.1692  0.0846
  114POPC   C1F 5897   0.851   0.627   4.707 -0.5612 -0.1458 -0.0070
  114POPC   C1G 5898   0.734   0.583   4.620 -0.3839  0.0369 -0.3392
  114POPC   C1H 5899   0.722   0.676   4.499  0.7382 -0.0197 -0.5013
  114POPC   C1I 5900   0.593   0.630   4.431  0.3723  0.2227  0.0243
  114POPC   C1J 5901   0.585   0.642   4.299 -0.0452 -0.5224 -0.0248
  114POPC   C1K 5902   0.695   0.706   4.214 -0.3991 -0.7170 -0.6426
  114POPC   C1L 5903   0.654   0.830   4.135  0.1579 -0.0783  0.0568
  114POPC   C1M 5904   0.774   0.909   4.082  0.1132 -0.1333 -0.1238
  114POPC   C1N 5905   0.824   0.856   3.947 -0.0398 -0.1535 -0.1740
  114POPC   C1O 5906   0.976   0.875   3.939 -0.0286  0.2258  0.7103
  114POPC   C1P 5907   1.045   1.011   3.936 -0.2117  0.3088 -0.3930
  114POPC   C1Q 5908   1.194   0.987   3.914 -0.2282  0.4079 -0.6170
  114POPC   C1R 5909   1.270   1.115   3.950 -0.2277  0.1017  0.5312
  114POPC    CE 5910   0.987   0.510   5.575 -0.4152 -0.4006 -0.4143
  114POPC    OG 5911   0.964   0.396   5.659  0.1580 -0.3451 -0.1808
  114POPC   C2A 5912   0.874   0.395   5.756  0.3795 -0.2284  0.0260
  114POPC    OH 5913   0.828   0.500   5.801 -0.3335 -0.3344 -0.4424
  114POPC   C2B 5914   0.830   0.262   5.804  0.1539 -0.1714 -0.0219
  114POPC   C2C 5915   0.705   0.214   5.730  0.0352 -0.2876  0.2515
  114POPC   C2D 5916   0.708   0.201   5.577 -0.1501  0.1846  0.2080
  114POPC   C2E 5917   0.568   0.197   5.516 -0.0415 -0.2748 -0.0095
  114POPC   C2F 5918   0.555   0.098   5.400  0.3349  0.0697 -0.3509
  114POPC   C2G 5919   0.615   0.159   5.273 -0.2727  0.8049 -0.2829
  114POPC   C2H 5920   0.607   0.066   5.152 -0.0316  0.1551  0.1969
  114POPC   C2I 5921   0.686   0.129   5.037  0.1798  0.1127  0.3184
  114POPC   C2J 5922   0.681   0.034   4.918  0.0434  0.3984  0.0948
  114POPC   C2K 5923   0.780   0.070   4.807  0.0887  0.0134  0.0089
  114POPC   C2L 5924   0.745   0.188   4.718  0.1590 -0.0553 -0.1092
  114POPC   C2M 5925   0.820   0.201   4.585 -0.3072  0.5168 -0.3251
  114POPC   C2N 5926   0.830   0.073   4.501 -0.0198  0.2879  0.0523
  114POPC   C2O 5927   0.884   0.108   4.362  0.4302 -0.0845  0.1345
  114POPC   C2P 5928   0.780   0.188   4.284  0.3973  0.3057  0.5707
  115POPC   CN1 5929   4.898   0.826   5.787  0.3177  0.6590  0.1941
  115POPC   CN2 5930   4.905   1.042   5.703 -0.5427 -0.1279 -0.3623
  115POPC   CN3 5931   5.078   0.959   5.843  0.5040  0.3441  0.4279
  115POPC   NTM 5932   4.932   0.964   5.824  0.5777  0.6705 -0.0869
  115POPC    CA 5933   4.856   1.019   5.937 -0.2113  0.2359 -0.4054
  115POPC    CB 5934   4.703   1.031   5.930 -0.2584 -0.2017 -0.2052
  115POPC    OA 5935   4.618   0.918   5.911 -0.1864 -0.4150  0.7017
  115POPC     P 5936   4.466   0.968   5.898 -0.0194 -0.1341 -0.2676
  115POPC    OB 5937   4.427   1.056   0.011 -0.1886 -0.2900 -0.2048
  115POPC    OC 5938   4.402   0.842   5.856  0.2424 -0.2940 -0.1921
  115POPC    OD 5939   4.486   1.056   5.764 -0.2933  0.1704 -0.1116
  115POPC    CC 5940   4.431   0.998   5.646 -0.7383 -0.2454  0.2950
  115POPC    CD 5941   4.543   0.939   5.561 -0.3099  0.1772  0.5580
  115POPC    OE 5942   4.572   1.004   5.437  0.2268 -0.0989  0.5371
  115POPC   C1A 5943   4.693   0.984   5.384 -0.1768 -0.1688 -0.3789
  115POPC    OF 5944   4.772   0.910   5.441 -0.4256 -0.1525 -0.0071
  115POPC   C1B 5945   4.713   1.058   5.257  0.1376  0.3090 -0.0544
  115POPC   C1C 5946   4.844   1.014   5.193 -0.1155 -0.0747 -0.3088
  115POPC   C1D 5947   4.845   1.063   5.048 -0.7292 -0.1366 -0.3366
  115POPC   C1E 5948   4.758   0.988   4.947 -0.6642  0.1633 -0.6175
  115POPC   C1F 5949   4.776   1.033   4.802  0.0260  0.3248 -0.4846
  115POPC   C1G 5950   4.892   0.979   4.718  0.3464 -0.4835  0.4612
  115POPC   C1H 5951   4.917   0.829   4.730  0.0984 -0.5471  0.1856
  115POPC   C1I 5952   5.038   0.799   4.641  0.2303  0.4199  0.0294
  115POPC   C1J 5953   5.108   0.693   4.680  0.0677  0.4002  0.2713
  115POPC   C1K 5954   5.045   0.594   4.778 -0.1646  0.0217 -0.2521
  115POPC   C1L 5955   5.147   0.498   4.841 -0.7710  0.0706  0.8313
  115POPC   C1M 5956   5.260   0.562   4.923 -0.0120 -0.1663 -0.0153
  115POPC   C1N 5957   5.370   0.459   4.948 -0.0210 -0.2272 -0.2228
  115POPC   C1O 5958   5.457   0.496   5.068 -0.3484  0.0042 -0.0566
  115POPC   C1P 5959   5.564   0.388   5.088 -0.4732 -0.0266  0.4621
  115POPC   C1Q 5960   5.644   0.400   5.218  0.1433 -0.1553  0.0987
  115POPC   C1R 5961   5.704   0.268   5.268  0.1853  0.1097  0.7563
  115POPC    CE 5962   4.515   0.788   5.553 -0.4064  0.2128  0.2181
  115POPC    OG 5963   4.393   0.761   5.484 -0.2997  0.1517  0.0524
  115POPC   C2A 5964   4.347   0.637   5.496 -0.0225  0.0777  0.3557
  115POPC    OH 5965   4.387   0.552   5.575  0.6130 -0.0226 -0.0708
  115POPC   C2B 5966   4.230   0.617   5.407  0.1217 -0.4245  0.2761
  115POPC   C2C 5967   4.275   0.562   5.271  0.5112 -0.2063  0.3137
  115POPC   C2D 5968   4.157   0.507   5.191  0.4790 -0.3387  0.4523
  115POPC   C2E 5969   4.222   0.453   5.063  0.0600  0.7036 -0.2112
  115POPC   C2F 5970   4.120   0.441   4.950  0.1275  0.1242 -0.2142
  115POPC   C2G 5971   4.179   0.365   4.832 -0.1906 -0.0877 -0.2393
  115POPC   C2H 5972   4.074   0.342   4.724 -0.1429  0.2231 -0.3509
  115POPC   C2I 5973   4.152   0.291   4.602  0.5760 -0.4372  0.3787
  115POPC   C2J 5974   4.054   0.227   4.505  0.3656 -0.7112  0.7669
  115POPC   C2K 5975   4.118   0.161   4.383 -0.1420 -0.6264  0.4495
  115POPC   C2L 5976   4.003   0.110   4.296 -0.0266 -0.0790 -0.0321
  115POPC   C2M 5977   4.031   0.096   4.146  0.2767  0.6005 -0.0456
  115POPC   C2N 5978   3.924   0.016   4.072  0.4688  0.6189 -0.3467
  115POPC   C2O 5979   3.934   0.042   3.921 -0.0879  0.5778 -0.3930
  115POPC   C2P 5980   3.825   6.294   3.860 -0.0307  0.0625  0.2306
  116POPC   CN1 5981   6.293   1.891   5.300  0.2448 -0.5456  0.2942
  116POPC   CN2 5982   6.162   1.860   5.101  0.2336  0.2832  0.2364
  116POPC   CN3 5983   6.070   1.988   5.269  0.7128  0.2478  0.2852
  116POPC   NTM 5984   6.157   1.871   5.247  0.1967 -0.1389  0.2688
  116POPC    CA 5985   6.104   1.739   5.282 -0.8710  0.2219  0.0585
  116POPC    CB 5986   6.054   1.700   5.421 -0.2139 -0.3190  0.1519
  116POPC    OA 5987   5.960   1.792   5.479  0.3169  0.2334  0.1494
  116POPC     P 5988   5.805   1.759   5.455  0.2016  0.1832  0.9421
  116POPC    OB 5989   5.707   1.854   5.513 -0.4838  0.1989 -0.2051
  116POPC    OC 5990   5.791   1.612   5.443 -0.4821  0.3082  0.1015
  116POPC    OD 5991   5.797   1.799   5.299  0.2895 -0.4874  0.7659
  116POPC    CC 5992   5.692   1.730   5.231  0.4242 -0.2782  0.3406
  116POPC    CD 5993   5.687   1.773   5.085 -0.3276 -0.5371  0.2846
  116POPC    OE 5994   5.664   1.914   5.069  0.1045 -0.4128  0.7404
  116POPC   C1A 5995   5.769   1.984   5.028 -0.1772 -0.3728  0.0819
  116POPC    OF 5996   5.878   1.928   5.016  0.0125 -0.1380  0.6600
  116POPC   C1B 5997   5.749   2.130   5.019  0.1181 -0.3190  0.2742
  116POPC   C1C 5998   5.724   2.178   4.876  0.1549 -0.4591  0.2201
  116POPC   C1D 5999   5.587   2.131   4.825 -0.2858  0.2613  0.7208
  116POPC   C1E 6000   5.471   2.227   4.850 -0.2461  0.5099 -0.0358
  116POPC   C1F 6001   5.359   2.214   4.747 -0.1112  0.4373 -0.1736
  116POPC   C1G 6002   5.304   2.072   4.735  0.1733  0.3195 -0.0693
  116POPC   C1H 6003   5.187   2.058   4.637 -0.0464  0.0442  0.2307
  116POPC   C1I 6004   5.138   1.913   4.633 -0.1851  0.0910  0.2567
  116POPC   C1J 6005   5.023   1.878   4.574  0.0376 -0.2386  0.0147
  116POPC   C1K 6006   4.939   1.967   4.483  0.2495 -0.3748 -0.3146
  116POPC   C1L 6007   4.903   1.908   4.347  0.0099  0.8365 -0.7958
  116POPC   C1M 6008   4.759   1.876   4.306 -0.0856  0.0181  0.1396
  116POPC   C1N 6009   4.776   1.814   4.167  0.0480  0.2334  0.0585
  116POPC   C1O 6010   4.632   1.781   4.125  0.2845 -0.7459 -0.0130
  116POPC   C1P 6011   4.610   1.792   3.974  0.1035  0.8317  0.1081
  116POPC   C1Q 6012   4.464   1.800   3.932  0.1281  0.0260 -0.1458
  116POPC   C1R 6013   4.384   1.672   3.907 -0.6136  0.6019 -0.7817
  116POPC    CE 6014   5.598   1.674   5.010 -0.3256 -0.1619 -0.2186
  116POPC    OG 6015   5.466   1.676   5.065 -0.2335  0.2103 -0.0048
  116POPC   C2A 6016   5.404   1.560   5.040 -0.1979  0.2260 -0.1698
  116POPC    OH 6017   5.450   1.481   4.959 -0.3275 -0.1121  0.0865
  116POPC   C2B 6018   5.288   1.546   5.131  0.3047  0.1490  0.4694
  116POPC   C2C 6019   5.184   1.453   5.069  0.6168  0.3955 -0.4503
  116POPC   C2D 6020   5.123   1.532   4.954  0.0007  0.7052  0.0756
  116POPC   C2E 6021   5.024   1.443   4.880  0.3757  0.3636 -0.0188
  116POPC   C2F 6022   4.949   1.498   4.758  0.7046 -0.5975 -0.6758
  116POPC   C2G 6023   4.884   1.390   4.671  0.1299 -0.2080 -0.7381
  116POPC   C2H 6024   4.829   1.439   4.538  0.2047  0.0985 -0.6576
  116POPC   C2I 6025   4.774   1.324   4.453  0.2039 -0.2620 -0.1682
  116POPC   C2J 6026   4.712   1.368   4.320  0.8277  0.2945 -0.2839
  116POPC   C2K 6027   4.696   1.245   4.230  0.0417  0.2961 -0.1586
  116POPC   C2L 6028   4.608   1.272   4.108 -0.3470  0.2609  0.1152
  116POPC   C2M 6029   4.632   1.190   3.981 -0.0475  0.2939  0.1506
  116POPC   C2N 6030   4.531   1.248   3.882 -0.1403  0.2509  0.2201
  116POPC   C2O 6031   4.554   1.172   3.751 -0.3033  0.0279  0.3201
  116POPC   C2P 6032   4.433   1.189   3.659  0.0966  0.0629 -0.2039
  117POPC   CN1 6033   2.524   5.799   5.722  0.3082 -0.2700  0.3873
  117POPC   CN2 6034   2.468   5.950   5.562 -0.5152  0.2630  0.5458
  117POPC   CN3 6035   2.655   5.999   5.708 -0.1091  0.0534 -0.4445
  117POPC   NTM 6036   2.518   5.944   5.700 -0.0256 -0.2880  0.3487
  117POPC    CA 6037   2.435   5.998   5.809  0.4042  0.4884  0.3049
  117POPC    CB 6038   2.383   6.141   5.796  0.6454  0.5394 -0.1179
  117POPC    OA 6039   2.304   6.161   5.678  0.2907 -0.2045 -0.0151
  117POPC     P 6040   2.270   6.317   5.655 -0.0613 -0.2809 -0.0123
  117POPC    OB 6041   2.245   0.031   5.791  0.1166 -0.3814  0.0604
  117POPC    OC 6042   2.174   0.003   5.545 -0.1731  0.0187  0.1559
  117POPC    OD 6043   2.408   0.047   5.612 -0.1882 -0.0334 -0.0150
  117POPC    CC 6044   2.436   0.032   5.473  0.3837  0.1070  0.0822
  117POPC    CD 6045   2.542   6.282   5.408  0.0705  0.0582 -0.3683
  117POPC    OE 6046   2.676   6.329   5.416  0.2607 -0.5052 -0.1954
  117POPC   C1A 6047   2.750   6.306   5.524 -0.0723  0.5108  0.2629
  117POPC    OF 6048   2.692   6.272   5.627 -0.9570 -0.0335 -0.3931
  117POPC   C1B 6049   2.893   6.333   5.496 -0.0494  0.2248  0.1031
  117POPC   C1C 6050   2.980   6.262   5.600  0.0259 -0.3044 -0.3148
  117POPC   C1D 6051   3.008   6.112   5.596 -0.1576 -0.3458  0.0176
  117POPC   C1E 6052   3.050   6.046   5.465 -0.2192 -0.0112 -0.1714
  117POPC   C1F 6053   3.033   5.894   5.461  1.1530 -0.1771  0.0507
  117POPC   C1G 6054   3.120   5.845   5.345  0.8986 -0.3101 -0.0850
  117POPC   C1H 6055   3.092   5.702   5.299 -0.4522 -0.0872  0.0150
  117POPC   C1I 6056   3.220   5.665   5.225 -0.4337 -0.2024  0.1044
  117POPC   C1J 6057   3.240   5.546   5.169 -0.2621 -0.1654  0.0866
  117POPC   C1K 6058   3.130   5.439   5.172 -0.1654 -0.2485  0.7663
  117POPC   C1L 6059   3.136   5.333   5.062  0.3254  0.4184  0.1333
  117POPC   C1M 6060   3.125   5.376   4.916  0.0342  0.1648  0.0788
  117POPC   C1N 6061   3.146   5.256   4.823  0.4990  0.0763  0.2952
  117POPC   C1O 6062   3.278   5.181   4.841  0.2252 -0.3143  0.7025
  117POPC   C1P 6063   3.309   5.057   4.757 -0.0456 -0.1482  0.3503
  117POPC   C1Q 6064   3.303   5.077   4.606  0.1068 -0.2520  0.3290
  117POPC   C1R 6065   3.349   4.953   4.528 -0.3056 -0.0517 -0.2399
  117POPC    CE 6066   2.498   6.258   5.263 -0.5059  0.6947 -0.3073
  117POPC    OG 6067   2.365   6.210   5.248 -0.4882  0.6019 -0.1739
  117POPC   C2A 6068   2.331   6.082   5.237  0.1543  0.4117  0.0591
  117POPC    OH 6069   2.420   6.000   5.260 -0.0406  0.0917 -0.3223
  117POPC   C2B 6070   2.189   6.052   5.210  0.1640  0.3306  0.0953
  117POPC   C2C 6071   2.168   5.994   5.070  0.1290 -0.2020  0.3193
  117POPC   C2D 6072   2.171   6.103   4.962  0.7931 -0.4861  0.0433
  117POPC   C2E 6073   2.156   6.045   4.821 -0.5594 -0.1161  0.0170
  117POPC   C2F 6074   2.115   6.148   4.716 -0.3134  0.0377  0.0723
  117POPC   C2G 6075   1.977   6.213   4.728 -0.2902  0.3133 -1.0584
  117POPC   C2H 6076   1.851   6.130   4.707 -0.0791 -0.1839 -0.3816
  117POPC   C2I 6077   1.835   6.091   4.560 -0.0080 -0.1864 -0.3881
  117POPC   C2J 6078   1.723   5.991   4.530  0.1573 -0.4891 -0.0039
  117POPC   C2K 6079   1.695   5.971   4.381 -0.3208 -0.0988  0.0292
  117POPC   C2L 6080   1.807   5.881   4.328 -0.3163  0.2011 -0.4707
  117POPC   C2M 6081   1.778   5.846   4.182 -0.0534  0.5431 -0.6084
  117POPC   C2N 6082   1.905   5.763   4.163 -0.3005 -0.0991  0.4346
  117POPC   C2O 6083   1.897   5.689   4.029 -0.5914 -0.0455  0.4226
  117POPC   C2P 6084   1.947   5.791   3.927 -0.6318  0.2979  0.7425
  118POPC   CN1 6085   4.705   3.678   5.545 -0.0510  0.2305 -0.0745
  118POPC   CN2 6086   4.651   3.545   5.364  0.1192  0.5616 -0.5095
  118POPC   CN3 6087   4.465   3.644   5.482  0.4576  0.0766  0.5472
  118POPC   NTM 6088   4.601   3.588   5.495  0.3890 -0.2521 -0.1331
  118POPC    CA 6089   4.596   3.478   5.593 -0.3380 -0.2070 -0.1108
  118POPC    CB 6090   4.589   3.500   5.744 -0.5635 -0.5956 -0.0613
  118POPC    OA 6091   4.484   3.594   5.771  0.0322  0.1306 -0.2118
  118POPC     P 6092   4.431   3.587   5.922  0.3509  0.0148 -0.1042
  118POPC    OB 6093   4.550   3.629   6.000  0.2856  0.0936 -0.0453
  118POPC    OC 6094   4.356   3.465   5.959  0.5033  0.0804  0.4393
  118POPC    OD 6095   4.327   3.710   5.930  0.1874 -0.1233 -0.1173
  118POPC    CC 6096   4.195   3.678   5.884  0.1156  0.0118 -0.0045
  118POPC    CD 6097   4.172   3.690   5.733 -0.5806 -0.1341  0.0870
  118POPC    OE 6098   4.088   3.800   5.693 -0.4722 -0.1662 -0.2315
  118POPC   C1A 6099   4.140   3.873   5.595  0.2448 -0.0991  0.1915
  118POPC    OF 6100   4.262   3.887   5.583  0.0852  0.9233 -0.4096
  118POPC   C1B 6101   4.040   3.967   5.541 -0.0056 -0.3943  0.1421
  118POPC   C1C 6102   3.931   3.891   5.464 -0.1043  0.2930 -0.4044
  118POPC   C1D 6103   3.978   3.816   5.339 -0.6934 -0.2041 -0.3284
  118POPC   C1E 6104   4.039   3.914   5.239 -0.4041 -0.0257  0.0218
  118POPC   C1F 6105   4.111   3.848   5.121 -0.5906 -0.4217  0.1271
  118POPC   C1G 6106   4.206   3.735   5.158 -0.2173 -0.1733 -0.0696
  118POPC   C1H 6107   4.276   3.695   5.027  0.0466  0.1512 -0.0297
  118POPC   C1I 6108   4.402   3.614   5.058 -0.0165  0.0101 -0.1404
  118POPC   C1J 6109   4.464   3.549   4.960 -0.4594  0.1232 -0.5001
  118POPC   C1K 6110   4.407   3.553   4.818 -0.0594 -0.3231 -0.6783
  118POPC   C1L 6111   4.500   3.624   4.720  0.3256  0.0099 -0.0778
  118POPC   C1M 6112   4.435   3.677   4.592 -0.1536  0.3013  0.2828
  118POPC   C1N 6113   4.503   3.789   4.514 -0.3600  0.2265 -0.0059
  118POPC   C1O 6114   4.437   3.922   4.550 -0.4833  0.1966 -0.1222
  118POPC   C1P 6115   4.512   4.045   4.498 -0.3120  0.0533 -0.2188
  118POPC   C1Q 6116   4.662   4.065   4.519 -0.3384 -0.0161  0.0422
  118POPC   C1R 6117   4.698   4.165   4.409 -0.1283 -0.3049 -0.1541
  118POPC    CE 6118   4.108   3.558   5.691 -0.0560 -0.4539  0.2840
  118POPC    OG 6119   4.146   3.523   5.557 -0.6136  0.3187 -0.0870
  118POPC   C2A 6120   4.111   3.401   5.518 -0.1847  0.0311  0.4195
  118POPC    OH 6121   4.073   3.309   5.591  0.1559 -0.0020  0.5555
  118POPC   C2B 6122   4.159   3.379   5.380  0.1108  0.2901  0.4803
  118POPC   C2C 6123   4.052   3.409   5.275  0.3192 -0.4868  0.0434
  118POPC   C2D 6124   4.113   3.360   5.143 -0.0998  0.0265 -0.3427
  118POPC   C2E 6125   4.011   3.347   5.030 -0.6197  0.0547  0.1186
  118POPC   C2F 6126   4.079   3.280   4.910  0.0249  0.2262  0.3840
  118POPC   C2G 6127   3.992   3.293   4.785 -0.0003  0.3114  0.4107
  118POPC   C2H 6128   4.077   3.251   4.665 -0.0451  0.4423  0.3319
  118POPC   C2I 6129   4.038   3.333   4.543  0.3405  0.1163 -0.0121
  118POPC   C2J 6130   4.124   3.296   4.422  0.3238 -0.2516  0.0876
  118POPC   C2K 6131   4.117   3.391   4.302  0.3955 -0.6169 -0.2096
  118POPC   C2L 6132   4.239   3.483   4.309 -0.5385  0.6065  0.4403
  118POPC   C2M 6133   4.240   3.574   4.186  0.2757  0.2460  0.1724
  118POPC   C2N 6134   4.381   3.634   4.186  0.2591  0.2871 -0.1617
  118POPC   C2O 6135   4.387   3.728   4.066  0.5319  0.4070 -0.0539
  118POPC   C2P 6136   4.354   3.651   3.938  0.2347  0.3616  0.0499
  119POPC   CN1 6137   4.267   4.806   0.008 -0.4505 -0.0393  0.4274
  119POPC   CN2 6138   4.443   4.942   5.945  0.4158 -0.2166 -0.6619
  119POPC   CN3 6139   4.459   4.704   5.945 -0.0866  0.1868  0.9816
  119POPC   NTM 6140   4.412   4.820   0.022 -0.4857  0.5410  0.2138
  119POPC    CA 6141   4.445   4.812   0.165  0.1059 -0.2724  0.0354
  119POPC    CB 6142   4.588   4.823   0.218  0.0623  0.1231  0.0730
  119POPC    OA 6143   4.643   4.945   0.167 -0.1154  0.1029 -0.1687
  119POPC     P 6144   4.795   4.955   0.218  0.0249 -0.2770 -0.5007
  119POPC    OB 6145   4.817   4.868   0.336  0.6179  0.1606 -0.2861
  119POPC    OC 6146   4.822   5.100   0.233 -0.3650 -0.2161 -0.3751
  119POPC    OD 6147   4.867   4.886   0.092 -0.0719 -0.6044 -0.3773
  119POPC    CC 6148   4.923   4.981   0.001  0.1905  0.0974  0.4998
  119POPC    CD 6149   4.825   5.056   5.910 -0.0061 -0.5622  0.1634
  119POPC    OE 6150   4.821   5.016   5.773 -0.9082  0.1564 -0.0293
  119POPC   C1A 6151   4.750   4.907   5.740 -0.2317 -0.1908 -0.3582
  119POPC    OF 6152   4.714   4.827   5.826  0.6167 -0.2687 -0.0653
  119POPC   C1B 6153   4.775   4.882   5.597 -0.5188 -0.1732 -0.4123
  119POPC   C1C 6154   4.887   4.778   5.598  0.1645  0.5537  0.3408
  119POPC   C1D 6155   4.961   4.762   5.466  0.0687 -0.0919  0.3575
  119POPC   C1E 6156   5.039   4.631   5.457 -0.3642 -0.3309  0.0207
  119POPC   C1F 6157   4.949   4.508   5.465 -0.1869 -0.4741 -0.1520
  119POPC   C1G 6158   5.022   4.375   5.449  1.0091  0.1726 -0.1674
  119POPC   C1H 6159   5.030   4.349   5.299 -0.0464 -0.1827 -0.1703
  119POPC   C1I 6160   5.085   4.210   5.267  0.3124 -0.0281 -0.2240
  119POPC   C1J 6161   5.058   4.141   5.157 -0.3844 -0.1125 -0.0010
  119POPC   C1K 6162   4.971   4.212   5.052 -0.4921 -0.2392  0.0021
  119POPC   C1L 6163   4.925   4.115   4.943 -0.3806  0.2966 -0.5246
  119POPC   C1M 6164   5.036   4.036   4.874  0.3888  0.7267  0.2052
  119POPC   C1N 6165   4.971   3.955   4.762  0.4123  0.7490  0.1754
  119POPC   C1O 6166   5.085   3.916   4.667  0.3594  0.3936  0.2567
  119POPC   C1P 6167   5.017   3.869   4.538  0.1164  0.3750  0.3889
  119POPC   C1Q 6168   5.123   3.813   4.443 -0.3537  0.0516  0.0569
  119POPC   C1R 6169   5.089   3.775   4.298  0.3004 -0.1830 -0.0392
  119POPC    CE 6170   4.860   5.203   5.933  0.1134 -0.4463 -0.7109
  119POPC    OG 6171   4.809   5.309   5.852  0.2043  0.4954  0.4376
  119POPC   C2A 6172   4.691   5.363   5.880 -0.2326 -0.2795  0.1182
  119POPC    OH 6173   4.616   5.321   5.968  0.2490 -0.6534  0.3515
  119POPC   C2B 6174   4.658   5.482   5.798 -0.2132 -0.2271  0.1866
  119POPC   C2C 6175   4.563   5.443   5.685 -0.3506  0.3189  0.1088
  119POPC   C2D 6176   4.602   5.328   5.591 -0.2994  0.0269  0.4818
  119POPC   C2E 6177   4.745   5.348   5.542 -0.5271 -0.0536 -0.2264
  119POPC   C2F 6178   4.790   5.238   5.446  0.4221 -0.1490  0.3144
  119POPC   C2G 6179   4.939   5.226   5.414  0.4412  0.0520  0.3297
  119POPC   C2H 6180   4.956   5.115   5.310  0.0959  0.0846  0.2383
  119POPC   C2I 6181   5.088   5.114   5.233  0.0982 -0.1881  0.2462
  119POPC   C2J 6182   5.098   5.233   5.138 -0.2006 -0.5412 -0.2284
  119POPC   C2K 6183   5.231   5.223   5.063  0.4840 -0.1519  0.9081
  119POPC   C2L 6184   5.228   5.338   4.962  0.2411 -0.2256  0.8312
  119POPC   C2M 6185   5.345   5.338   4.864 -0.6419 -0.0796 -0.2526
  119POPC   C2N 6186   5.357   5.477   4.801  0.3274  0.0442  0.1785
  119POPC   C2O 6187   5.468   5.466   4.697 -0.1431 -0.1850 -0.3037
  119POPC   C2P 6188   5.505   5.611   4.664  0.1604 -0.1392  0.2203
  120POPC   CN1 6189   2.815   2.677   5.751 -0.6031  0.0366  0.1891
  120POPC   CN2 6190   2.998   2.639   5.886 -0.4644 -0.5039 -0.4510
  120POPC   CN3 6191   2.779   2.588   5.973  0.2465 -0.2510 -0.3524
  120POPC   NTM 6192   2.857   2.681   5.891 -0.1684  0.4538  0.0470
  120POPC    CA 6193   2.837   2.818   5.943 -0.3408  0.3926  0.1424
  120POPC    CB 6194   2.935   2.933   5.921 -0.2898  0.2632 -0.3291
  120POPC    OA 6195   2.938   2.972   5.784  0.5131  0.1907 -0.3374
  120POPC     P 6196   2.809   3.040   5.716  0.1170 -0.2386 -0.0232
  120POPC    OB 6197   2.857   3.174   5.676  1.0879 -0.6031 -0.1167
  120POPC    OC 6198   2.690   3.028   5.803 -0.0260 -0.0864 -0.1976
  120POPC    OD 6199   2.797   2.949   5.583  0.5388 -0.5375  0.1395
  120POPC    CC 6200   2.889   2.980   5.479  0.1095  0.1707 -0.0400
  120POPC    CD 6201   2.892   2.889   5.356  0.0277  0.5242 -0.3061
  120POPC    OE 6202   2.995   2.913   5.260  0.1492  0.1914 -0.2592
  120POPC   C1A 6203   3.124   2.913   5.296  0.1442 -0.1123 -0.2377
  120POPC    OF 6204   3.165   2.891   5.410 -0.4645 -0.3181 -0.0554
  120POPC   C1B 6205   3.208   2.955   5.182  0.0556  0.0948 -0.2287
  120POPC   C1C 6206   3.272   2.824   5.135 -0.0543 -0.0900  0.1369
  120POPC   C1D 6207   3.379   2.837   5.027  0.2916 -0.1207  0.4722
  120POPC   C1E 6208   3.412   2.707   4.954 -0.2157 -0.0116  0.0421
  120POPC   C1F 6209   3.457   2.708   4.808 -0.6375  0.1254 -0.0880
  120POPC   C1G 6210   3.474   2.568   4.749  0.7235  0.1042  0.3262
  120POPC   C1H 6211   3.520   2.599   4.607 -0.1189 -0.0539  0.0123
  120POPC   C1I 6212   3.559   2.472   4.530  0.5237  0.1593 -0.0269
  120POPC   C1J 6213   3.532   2.448   4.402  0.5609  0.4599 -0.0913
  120POPC   C1K 6214   3.458   2.564   4.335  0.4966  0.5022  0.0507
  120POPC   C1L 6215   3.446   2.549   4.183  0.1634  0.2311  0.1016
  120POPC   C1M 6216   3.363   2.666   4.131 -0.3501 -0.1533  0.0462
  120POPC   C1N 6217   3.378   2.681   3.979  0.5276  0.4881  0.1882
  120POPC   C1O 6218   3.260   2.747   3.908  0.4133 -0.2666 -0.3318
  120POPC   C1P 6219   3.280   2.793   3.763  0.2425 -0.4786 -0.4227
  120POPC   C1Q 6220   3.153   2.855   3.703  0.0955 -0.4515 -0.0881
  120POPC   C1R 6221   3.175   2.905   3.560 -0.4309 -0.5567 -0.2094
  120POPC    CE 6222   2.755   2.883   5.289 -0.2534  0.4827  0.2689
  120POPC    OG 6223   2.709   3.010   5.243  0.0774  0.5916  0.2385
  120POPC   C2A 6224   2.639   3.007   5.130  0.4481 -0.1155  0.0227
  120POPC    OH 6225   2.578   2.904   5.101 -0.1854  0.2904 -0.1045
  120POPC   C2B 6226   2.607   3.137   5.069 -0.5274 -0.4660 -0.2288
  120POPC   C2C 6227   2.674   3.173   4.936 -0.3263 -0.4136 -0.1133
  120POPC   C2D 6228   2.642   3.066   4.831 -0.1765 -0.0966 -0.4830
  120POPC   C2E 6229   2.707   3.101   4.697  0.2846 -0.4729 -0.3608
  120POPC   C2F 6230   2.614   3.191   4.614  0.6888  0.3002  0.0174
  120POPC   C2G 6231   2.690   3.258   4.500  0.2590  0.2508 -0.3017
  120POPC   C2H 6232   2.632   3.360   4.402 -0.3471  0.0944 -0.1070
  120POPC   C2I 6233   2.539   3.290   4.302 -0.4829 -0.0977  0.1527
  120POPC   C2J 6234   2.500   3.386   4.190  0.1650 -0.1748 -0.1460
  120POPC   C2K 6235   2.430   3.515   4.235 -0.0958 -0.1353 -0.6578
  120POPC   C2L 6236   2.357   3.584   4.119  0.0090  0.2230 -0.5119
  120POPC   C2M 6237   2.314   3.726   4.157 -0.1028  0.0180  0.1372
  120POPC   C2N 6238   2.446   3.803   4.158 -0.0602 -0.0570  0.3571
  120POPC   C2O 6239   2.427   3.941   4.220  0.0138 -0.1558  0.6013
  120POPC   C2P 6240   2.375   4.037   4.112  0.4062 -0.2359  0.3394
  121POPC   CN1 6241   0.004   4.890   5.527 -0.4695 -0.3994 -0.2811
  121POPC   CN2 6242   0.074   4.658   5.494 -0.7161 -0.1492 -0.0037
  121POPC   CN3 6243   6.238   4.718   5.668  0.2375 -0.2738  0.2970
  121POPC   NTM 6244   0.044   4.764   5.591  0.0261 -0.0446  0.1146
  121POPC    CA 6245   0.163   4.776   5.677  0.1565 -0.5107  0.0003
  121POPC    CB 6246   0.203   4.682   5.791  0.3826  0.1112  0.4339
  121POPC    OA 6247   0.244   4.548   5.763 -0.5114 -0.0821  0.0098
  121POPC     P 6248   0.271   4.465   5.898  0.4495  0.1337 -0.0435
  121POPC    OB 6249   0.139   4.467   5.965  0.5544 -0.4082  0.1860
  121POPC    OC 6250   0.391   4.510   5.972  0.2993  0.3034  0.0991
  121POPC    OD 6251   0.305   4.322   5.832  0.0184 -0.0859  0.2083
  121POPC    CC 6252   0.194   4.258   5.767 -0.2700  0.3711  0.2452
  121POPC    CD 6253   0.204   4.248   5.615 -0.1659  0.1357  0.2668
  121POPC    OE 6254   0.094   4.182   5.553  0.0136  0.1952 -0.1158
  121POPC   C1A 6255   6.299   4.255   5.514  0.3619  0.4495 -0.5852
  121POPC    OF 6256   6.283   4.367   5.562  0.2209 -0.0114  0.4603
  121POPC   C1B 6257   6.202   4.173   5.437 -0.1405  0.8339 -0.3651
  121POPC   C1C 6258   6.255   4.112   5.307  0.2515  0.7674 -0.1761
  121POPC   C1D 6259   6.167   4.007   5.240  0.3218  0.3600  0.3624
  121POPC   C1E 6260   6.050   4.069   5.163  0.1809 -0.4408 -0.0789
  121POPC   C1F 6261   6.091   4.155   5.043  0.1735 -0.1394  0.1316
  121POPC   C1G 6262   5.963   4.220   4.990 -0.2886 -0.2433  1.1036
  121POPC   C1H 6263   5.983   4.346   4.905 -0.0303 -0.6610  0.5361
  121POPC   C1I 6264   5.997   4.325   4.754 -0.9596  0.1083  0.3340
  121POPC   C1J 6265   6.046   4.411   4.665 -0.4380 -0.4093  0.1179
  121POPC   C1K 6266   6.096   4.550   4.707  0.2101 -0.5439 -0.1960
  121POPC   C1L 6267   6.063   4.654   4.601 -0.0610 -0.2102  0.2144
  121POPC   C1M 6268   5.914   4.667   4.565 -0.0571  0.3263  0.3737
  121POPC   C1N 6269   5.907   4.783   4.465 -0.1085 -0.1615 -0.1974
  121POPC   C1O 6270   5.764   4.798   4.413 -0.3003 -0.3025  0.2807
  121POPC   C1P 6271   5.771   4.890   4.292  0.0539 -0.2435  0.3444
  121POPC   C1Q 6272   5.632   4.915   4.232  0.2322 -0.4804 -0.1722
  121POPC   C1R 6273   5.641   5.013   4.115 -0.2199  0.0095  0.1977
  121POPC    CE 6274   0.341   4.193   5.577 -0.3542 -0.0893 -0.0889
  121POPC    OG 6275   0.372   4.196   5.437  0.3616  0.2751  0.0710
  121POPC   C2A 6276   0.495   4.154   5.407 -0.2379 -1.4569 -0.0854
  121POPC    OH 6277   0.570   4.123   5.500 -0.2848 -0.0105  0.4614
  121POPC   C2B 6278   0.537   4.158   5.266  0.2051 -0.4229  0.0698
  121POPC   C2C 6279   0.422   4.127   5.169 -0.3906  0.0856  0.6018
  121POPC   C2D 6280   0.402   3.975   5.164 -0.5037  0.1005  0.6176
  121POPC   C2E 6281   0.275   3.946   5.084 -0.2733  0.5197  0.0970
  121POPC   C2F 6282   0.295   3.987   4.938 -0.5738 -0.7785 -0.3166
  121POPC   C2G 6283   0.173   3.960   4.850 -0.7922  0.0918 -0.2811
  121POPC   C2H 6284   0.226   3.906   4.717 -0.0312 -0.6736  0.3202
  121POPC   C2I 6285   0.110   3.832   4.650 -0.2787 -0.0454  0.0356
  121POPC   C2J 6286   0.141   3.808   4.502  0.3394 -0.0662  0.1644
  121POPC   C2K 6287   0.120   3.940   4.428  0.0564 -0.2411 -0.0679
  121POPC   C2L 6288   0.162   3.927   4.281  0.5490  0.0626  0.0451
  121POPC   C2M 6289   0.312   3.902   4.263  0.5381  0.1357 -0.1443
  121POPC   C2N 6290   0.349   3.882   4.116 -0.3717 -0.7115 -0.2693
  121POPC   C2O 6291   0.495   3.849   4.081 -0.0419  0.3954  0.0451
  121POPC   C2P 6292   0.524   3.811   3.936  1.1120  0.3628  0.2796
  122POPC   CN1 6293   4.336   0.067   5.737 -0.1770  0.2021 -0.1080
  122POPC   CN2 6294   4.463   0.266   5.713 -0.3707  0.4801  0.1145
  122POPC   CN3 6295   4.548   0.054   5.633 -0.3154  0.0925 -0.4009
  122POPC   NTM 6296   4.473   0.121   5.740 -0.2345  0.3699 -0.5173
  122POPC    CA 6297   4.538   0.102   5.870 -0.4497  0.4342 -0.3992
  122POPC    CB 6298   4.530   6.309   5.944 -0.3347  0.4559 -0.3467
  122POPC    OA 6299   4.557   6.198   5.857 -0.1548  0.1483  0.0958
  122POPC     P 6300   4.507   6.065   5.933 -0.2235  0.0262 -0.1626
  122POPC    OB 6301   4.364   6.075   5.971 -0.3374  0.3046 -0.6633
  122POPC    OC 6302   4.607   6.031   0.037 -0.4998 -0.1321  0.0529
  122POPC    OD 6303   4.527   5.954   5.818 -0.1199 -0.4585  0.3217
  122POPC    CC 6304   4.425   5.981   5.722  0.2468  0.0394  0.0722
  122POPC    CD 6305   4.447   5.948   5.574 -0.4393 -0.5096  0.0894
  122POPC    OE 6306   4.331   5.952   5.491 -0.2145  0.0788 -0.2004
  122POPC   C1A 6307   4.296   6.071   5.444  0.0158  0.3751  0.3706
  122POPC    OF 6308   4.350   6.174   5.483  0.5686  0.2613 -0.0709
  122POPC   C1B 6309   4.195   6.067   5.336  0.0485 -0.1839  0.3599
  122POPC   C1C 6310   4.255   6.037   5.198  0.4151  0.9361  0.2681
  122POPC   C1D 6311   4.158   6.061   5.083 -0.1183  0.3400  0.5860
  122POPC   C1E 6312   4.139   6.211   5.063  0.2062  0.3910  0.6555
  122POPC   C1F 6313   4.021   6.254   4.976  0.3199 -0.1629  0.2256
  122POPC   C1G 6314   4.012   6.196   4.834 -0.0711 -0.1328  0.2364
  122POPC   C1H 6315   3.902   6.262   4.750  0.0337 -0.0409  0.1717
  122POPC   C1I 6316   3.756   6.219   4.764  0.1290 -0.5746 -0.4417
  122POPC   C1J 6317   3.678   6.197   4.659 -0.3682 -0.0044 -0.1936
  122POPC   C1K 6318   3.730   6.195   4.516  0.5291  0.4203  0.1200
  122POPC   C1L 6319   3.610   6.220   4.424  0.4923 -0.0442  0.0407
  122POPC   C1M 6320   3.652   6.200   4.278  0.0373 -0.3109 -0.0556
  122POPC   C1N 6321   3.533   6.169   4.187 -0.2948  0.3985  0.1249
  122POPC   C1O 6322   3.559   6.040   4.108 -0.5569  0.3736  0.0799
  122POPC   C1P 6323   3.533   5.938   4.220  0.3604  0.4338  0.3509
  122POPC   C1Q 6324   3.544   5.790   4.183  0.2814  0.4846  0.1201
  122POPC   C1R 6325   3.530   5.706   4.311 -0.2963 -0.5905 -0.6300
  122POPC    CE 6326   4.528   5.819   5.562 -0.1191 -0.2545 -0.5077
  122POPC    OG 6327   4.493   5.725   5.459  0.2733 -0.0520 -0.8298
  122POPC   C2A 6328   4.387   5.646   5.470  0.3714 -0.0782 -0.0199
  122POPC    OH 6329   4.322   5.638   5.574  0.0356 -0.1014 -0.2309
  122POPC   C2B 6330   4.371   5.580   5.339  0.0631 -0.0177 -0.0134
  122POPC   C2C 6331   4.222   5.577   5.303  0.1005  0.0288 -0.1763
  122POPC   C2D 6332   4.199   5.537   5.157  0.2428 -0.3763 -0.0896
  122POPC   C2E 6333   4.052   5.551   5.117  0.2732  0.2941  0.0101
  122POPC   C2F 6334   3.987   5.686   5.148 -0.6048 -0.1120 -0.0213
  122POPC   C2G 6335   3.840   5.689   5.104 -0.5089  0.0876 -0.3364
  122POPC   C2H 6336   3.780   5.826   5.135 -0.3504  0.1480 -0.2933
  122POPC   C2I 6337   3.640   5.818   5.073 -0.4684  0.1485 -0.0270
  122POPC   C2J 6338   3.569   5.953   5.088 -0.6633  0.0140  0.2574
  122POPC   C2K 6339   3.428   5.941   5.030 -0.5345 -0.2398 -0.0033
  122POPC   C2L 6340   3.363   6.078   5.048 -0.3437 -0.1238 -0.1931
  122POPC   C2M 6341   3.212   6.071   5.023 -0.3660 -0.2180 -0.0319
  122POPC   C2N 6342   3.143   6.183   5.102 -0.0749 -0.3714  0.4460
  122POPC   C2O 6343   2.993   6.197   5.078  0.0083  0.8079  0.5665
  122POPC   C2P 6344   2.951   6.218   4.933 -0.1881  0.3309  0.5508
  123POPC   CN1 6345   0.070   4.168   0.114 -0.3045  0.4151  0.4359
  123POPC   CN2 6346   0.075   3.930   0.187  0.0778 -0.1342  0.7331
  123POPC   CN3 6347   0.176   4.113   0.312  0.5674 -0.0665 -0.5831
  123POPC   NTM 6348   0.146   4.059   0.179 -0.2116 -0.0425 -0.4239
  123POPC    CA 6349   0.267   4.048   0.096 -0.1056 -0.0609 -0.2671
  123POPC    CB 6350   0.342   3.922   0.052  0.4445  0.2184 -0.1269
  123POPC    OA 6351   0.262   3.820   5.993  0.1162  0.3482  0.0897
  123POPC     P 6352   0.238   3.846   5.836 -0.3231  0.0289  0.1029
  123POPC    OB 6353   0.231   3.707   5.785 -0.2230  0.0518  0.0261
  123POPC    OC 6354   0.323   3.955   5.784  0.2948 -0.2877  0.4417
  123POPC    OD 6355   0.092   3.905   5.872 -0.1362  0.5957 -0.0632
  123POPC    CC 6356   6.287   3.825   5.843  0.2495  0.0758 -0.1795
  123POPC    CD 6357   6.195   3.900   5.747  0.1091 -0.0146 -0.1154
  123POPC    OE 6358   6.059   3.861   5.771  0.0892  0.4373  0.5473
  123POPC   C1A 6359   5.966   3.928   5.704  0.1816  0.0729  0.0486
  123POPC    OF 6360   5.972   4.037   5.649  0.3188  0.0111 -0.0586
  123POPC   C1B 6361   5.847   3.841   5.714  0.4214 -0.2372  0.2269
  123POPC   C1C 6362   5.814   3.755   5.592 -0.4136 -0.0952  0.3404
  123POPC   C1D 6363   5.907   3.636   5.563 -0.1364  0.3137 -0.4833
  123POPC   C1E 6364   5.867   3.559   5.436  0.0838 -0.3418 -0.1580
  123POPC   C1F 6365   5.930   3.607   5.306  0.6051 -0.5330  0.0224
  123POPC   C1G 6366   5.859   3.551   5.182 -0.6823  0.1673  0.4349
  123POPC   C1H 6367   5.929   3.609   5.059 -0.4511 -0.3524  0.3221
  123POPC   C1I 6368   5.889   3.545   4.926 -0.0941  0.1102 -0.0104
  123POPC   C1J 6369   5.923   3.606   4.813 -0.0161 -0.5694 -0.3599
  123POPC   C1K 6370   5.989   3.743   4.792 -0.3531 -0.3039  0.2937
  123POPC   C1L 6371   5.986   3.789   4.646  0.4018  0.3828  0.4903
  123POPC   C1M 6372   6.030   3.935   4.632 -0.2505  0.5544  0.2406
  123POPC   C1N 6373   6.008   3.984   4.489  0.5368 -0.1586 -0.1308
  123POPC   C1O 6374   6.094   4.101   4.440 -0.1764  0.3923 -0.0834
  123POPC   C1P 6375   6.037   4.155   4.308  0.5742  0.6489 -0.3062
  123POPC   C1Q 6376   5.912   4.240   4.327  0.2491  0.0785  0.1567
  123POPC   C1R 6377   5.881   4.291   4.186 -0.1673 -0.6175 -0.0040
  123POPC    CE 6378   6.255   3.880   5.608  0.0646 -0.3176 -0.0910
  123POPC    OG 6379   6.263   3.741   5.574 -0.2554 -0.5051  0.5804
  123POPC   C2A 6380   0.043   3.702   5.485 -0.5709  0.4319 -0.1709
  123POPC    OH 6381   0.138   3.774   5.454 -0.5756  0.4794 -0.0744
  123POPC   C2B 6382   0.018   3.561   5.447 -0.5961  0.3466  0.1599
  123POPC   C2C 6383   6.301   3.540   5.298  0.3378 -0.0275  0.0394
  123POPC   C2D 6384   6.305   3.390   5.267  0.0170 -0.0470  0.0899
  123POPC   C2E 6385   6.294   3.360   5.117 -0.0514  0.0371  0.0776
  123POPC   C2F 6386   0.092   3.431   5.036  0.1810 -0.3689  0.0270
  123POPC   C2G 6387   0.080   3.407   4.885  0.0902  0.4603 -0.1043
  123POPC   C2H 6388   0.194   3.465   4.800 -0.2993  0.3583 -0.6978
  123POPC   C2I 6389   0.172   3.430   4.653 -0.0588 -0.6552 -0.4976
  123POPC   C2J 6390   0.304   3.443   4.576  0.1349  1.0430  0.0754
  123POPC   C2K 6391   0.272   3.406   4.431 -0.0383 -0.1823  0.4161
  123POPC   C2L 6392   0.269   3.253   4.423 -0.3062 -0.1613  0.1235
  123POPC   C2M 6393   0.239   3.194   4.285  0.3909  0.3666 -0.2596
  123POPC   C2N 6394   0.223   3.043   4.302 -1.1865  0.5019 -0.3630
  123POPC   C2O 6395   0.208   2.960   4.174 -0.2423  0.0525 -0.1908
  123POPC   C2P 6396   0.223   2.811   4.205  0.1280 -0.0278 -0.7418
  124POPC   CN1 6397   1.758   6.015   5.853 -0.3580 -0.0326 -0.1702
  124POPC   CN2 6398   1.655   5.823   5.758  0.0443 -0.3404 -0.1892
  124POPC   CN3 6399   1.526   5.965   5.911 -0.4120 -0.3117 -0.2070
  124POPC   NTM 6400   1.658   5.910   5.877 -0.3562 -0.0804 -0.3679
  124POPC    CA 6401   1.699   5.831   5.994  0.5690  0.2412 -0.4617
  124POPC    CB 6402   1.836   5.770   0.022  0.3249  0.1368  0.5364
  124POPC    OA 6403   1.937   5.867   0.054  0.0933  0.5437  0.0390
  124POPC     P 6404   2.072   5.815   5.984  0.1004  0.0442  0.4194
  124POPC    OB 6405   2.074   5.668   5.994  0.3409  0.0635  0.6950
  124POPC    OC 6406   2.179   5.915   0.009  0.1256  0.1209 -0.0022
  124POPC    OD 6407   2.027   5.836   5.831  0.3493  0.6709  0.4253
  124POPC    CC 6408   2.132   5.807   5.738 -0.2804 -0.3493  0.0158
  124POPC    CD 6409   2.100   5.796   5.589  0.1868  0.7773 -0.1723
  124POPC    OE 6410   2.211   5.782   5.500 -0.1682  0.2000 -0.5327
  124POPC   C1A 6411   2.259   5.658   5.493 -0.2374  0.1500 -0.1835
  124POPC    OF 6412   2.284   5.587   5.590  0.6255 -0.0417 -0.5318
  124POPC   C1B 6413   2.344   5.650   5.371  0.3606 -0.0911  0.2449
  124POPC   C1C 6414   2.321   5.514   5.306  0.5881  0.0196 -0.0658
  124POPC   C1D 6415   2.179   5.482   5.259  0.4855  0.2652  0.0771
  124POPC   C1E 6416   2.178   5.335   5.217  0.1253  0.3497 -0.2065
  124POPC   C1F 6417   2.040   5.273   5.241  0.2481  0.1477 -0.0199
  124POPC   C1G 6418   2.004   5.231   5.383 -0.2864 -0.5197 -0.3499
  124POPC   C1H 6419   1.877   5.146   5.398 -0.0924 -0.6108  0.9310
  124POPC   C1I 6420   1.903   5.009   5.335  0.7403 -0.0685  0.0586
  124POPC   C1J 6421   1.796   4.938   5.300  0.1364  0.3831  0.9567
  124POPC   C1K 6422   1.659   5.000   5.328  0.0633  0.5526  0.2168
  124POPC   C1L 6423   1.564   4.979   5.210  0.2611 -0.1726  0.1822
  124POPC   C1M 6424   1.458   4.870   5.227 -0.2344  0.3019  0.1877
  124POPC   C1N 6425   1.364   4.872   5.107 -0.0223  0.0100  0.0152
  124POPC   C1O 6426   1.423   4.834   4.971  0.0521  0.2847 -0.0285
  124POPC   C1P 6427   1.305   4.797   4.882  0.3458 -0.6626 -0.0335
  124POPC   C1Q 6428   1.350   4.772   4.738 -0.1623  0.5395 -0.4212
  124POPC   C1R 6429   1.244   4.685   4.670 -0.5566  0.4061  0.3477
  124POPC    CE 6430   2.041   5.933   5.555  0.1261  0.7786 -0.0612
  124POPC    OG 6431   1.968   5.934   5.432 -0.4045 -0.5540  0.2272
  124POPC   C2A 6432   1.850   5.995   5.435 -0.1071  0.0429  0.0374
  124POPC    OH 6433   1.817   6.045   5.542  0.1073  0.2409  0.0112
  124POPC   C2B 6434   1.774   6.015   5.309 -0.2355 -0.7959 -0.0262
  124POPC   C2C 6435   1.736   5.882   5.245 -0.3458 -0.7381 -0.0809
  124POPC   C2D 6436   1.817   5.873   5.115 -0.4306  0.1319 -0.2010
  124POPC   C2E 6437   1.808   5.740   5.040  0.1229  0.0686 -0.1568
  124POPC   C2F 6438   1.919   5.724   4.935  0.0233  0.0677 -0.2626
  124POPC   C2G 6439   1.910   5.579   4.887 -0.3488  0.0428 -0.1236
  124POPC   C2H 6440   1.992   5.531   4.767  0.0336  1.2290 -0.3522
  124POPC   C2I 6441   2.131   5.473   4.794 -0.5225 -0.0486 -0.1370
  124POPC   C2J 6442   2.198   5.411   4.671  0.3260 -0.3009  0.4468
  124POPC   C2K 6443   2.252   5.528   4.588  0.5125 -0.2260  0.6736
  124POPC   C2L 6444   2.336   5.476   4.471  0.6080  0.2900  0.5113
  124POPC   C2M 6445   2.382   5.589   4.378 -0.3372  0.4358  0.2048
  124POPC   C2N 6446   2.398   5.535   4.236 -0.1696 -0.2522  0.4826
  124POPC   C2O 6447   2.432   5.641   4.131  0.0435 -0.0890  0.7138
  124POPC   C2P 6448   2.576   5.692   4.134  0.0213  0.0187 -0.0598
  125POPC   CN1 6449   2.678   4.620   0.119 -0.1525 -0.4088 -0.1362
  125POPC   CN2 6450   2.481   4.714   0.036  0.6207 -0.3296 -0.2294
  125POPC   CN3 6451   2.653   4.630   5.890  0.0502 -1.0704  0.1002
  125POPC   NTM 6452   2.626   4.707   0.013  0.6134 -0.1773 -0.3271
  125POPC    CA 6453   2.688   4.840   0.007 -0.1726  0.2200  0.2118
  125POPC    CB 6454   2.833   4.861   5.962 -0.2502 -0.0465 -0.1687
  125POPC    OA 6455   2.869   4.852   5.824 -0.4370 -0.0790 -0.2156
  125POPC     P 6456   3.006   4.925   5.783 -0.6406  0.1711 -0.4498
  125POPC    OB 6457   3.111   4.871   5.872 -0.6183  0.1031 -0.5161
  125POPC    OC 6458   2.982   5.071   5.790  0.1493  0.2813  0.0153
  125POPC    OD 6459   3.020   4.870   5.632  0.2966 -0.2548 -0.2165
  125POPC    CC 6460   2.918   4.936   5.557  0.3818  0.1876  0.0510
  125POPC    CD 6461   2.791   4.856   5.527  0.2986  0.2626  0.2050
  125POPC    OE 6462   2.799   4.745   5.437  0.6198  0.4269  0.0308
  125POPC   C1A 6463   2.696   4.661   5.430  0.3637  0.6961  0.4650
  125POPC    OF 6464   2.617   4.644   5.523 -0.1557  0.0586 -0.0763
  125POPC   C1B 6465   2.683   4.586   5.302  0.2937  0.6319  0.5096
  125POPC   C1C 6466   2.541   4.572   5.247  0.6918  0.4691 -0.4851
  125POPC   C1D 6467   2.551   4.501   5.112  0.2157 -0.3559 -0.0916
  125POPC   C1E 6468   2.405   4.486   5.070  0.0798  0.4056  0.0924
  125POPC   C1F 6469   2.407   4.418   4.933  0.5987  0.2209  0.1887
  125POPC   C1G 6470   2.441   4.517   4.821 -0.2182  0.4863  0.1664
  125POPC   C1H 6471   2.505   4.468   4.691 -0.2763  0.2810  0.2160
  125POPC   C1I 6472   2.642   4.407   4.719 -0.4532 -0.4951 -0.5705
  125POPC   C1J 6473   2.720   4.358   4.623  0.5998  0.2738 -0.1342
  125POPC   C1K 6474   2.659   4.372   4.483  0.0615  0.3271  0.1033
  125POPC   C1L 6475   2.743   4.301   4.376 -0.3705 -0.0728  0.0230
  125POPC   C1M 6476   2.747   4.150   4.401 -0.0219 -0.0097  0.3780
  125POPC   C1N 6477   2.853   4.068   4.328 -0.5241 -0.2237 -0.1278
  125POPC   C1O 6478   2.993   4.106   4.379 -0.4689 -0.3611 -0.1768
  125POPC   C1P 6479   3.029   4.059   4.520 -0.0668  0.3480 -0.0369
  125POPC   C1Q 6480   3.172   4.105   4.549 -0.0919  0.1590  0.3885
  125POPC   C1R 6481   3.175   4.258   4.559 -0.1447  0.1932 -0.1058
  125POPC    CE 6482   2.704   4.977   5.492  0.1092  0.0485 -0.0698
  125POPC    OG 6483   2.751   5.080   5.405  0.0747  0.1207 -0.0024
  125POPC   C2A 6484   2.671   5.186   5.395  0.1207  0.1720  0.1658
  125POPC    OH 6485   2.558   5.176   5.443  0.6103 -0.1003  1.3016
  125POPC   C2B 6486   2.711   5.277   5.286 -0.6897  0.0535 -0.2320
  125POPC   C2C 6487   2.596   5.295   5.186 -0.5576 -0.3295 -0.4540
  125POPC   C2D 6488   2.626   5.391   5.071 -0.0250  0.5348  0.3994
  125POPC   C2E 6489   2.515   5.393   4.966  0.4993 -0.6920 -0.1919
  125POPC   C2F 6490   2.581   5.451   4.840 -0.4971  0.0671 -0.3741
  125POPC   C2G 6491   2.698   5.378   4.773  0.1770 -0.0183  0.8718
  125POPC   C2H 6492   2.729   5.445   4.639  0.0621 -0.5847  0.5605
  125POPC   C2I 6493   2.831   5.370   4.553  0.3132  0.4796 -0.0824
  125POPC   C2J 6494   2.850   5.456   4.428 -0.2211  0.3057 -0.2820
  125POPC   C2K 6495   2.956   5.402   4.332 -0.2442  0.1647 -0.2283
  125POPC   C2L 6496   2.970   5.495   4.212  0.8022  0.1667 -0.1168
  125POPC   C2M 6497   3.022   5.629   4.266 -0.1092  0.2327  0.6176
  125POPC   C2N 6498   2.999   5.718   4.143  0.8845  0.4091  0.5534
  125POPC   C2O 6499   3.030   5.867   4.154  0.3590  0.5822 -0.2682
  125POPC   C2P 6500   2.924   5.935   4.241  0.0571 -0.3366  0.0905
  126POPC   CN1 6501   0.689   3.617   5.563  0.3030 -0.0216 -0.2377
  126POPC   CN2 6502   0.607   3.800   5.675 -0.2998 -0.8616 -0.7539
  126POPC   CN3 6503   0.718   3.845   5.472 -0.1433  0.0240 -0.3964
  126POPC   NTM 6504   0.719   3.758   5.590  0.3054  0.0102 -0.4079
  126POPC    CA 6505   0.844   3.777   5.665  0.1580 -0.5224 -0.0220
  126POPC    CB 6506   0.976   3.750   5.592  0.4882  0.0302  0.3601
  126POPC    OA 6507   0.988   3.616   5.543  0.0877  0.1564 -0.0989
  126POPC     P 6508   1.127   3.607   5.463 -0.0139 -0.3551 -0.2200
  126POPC    OB 6509   1.240   3.601   5.559 -0.5065 -0.0259  0.3824
  126POPC    OC 6510   1.122   3.698   5.346  0.3231  0.3995  0.3462
  126POPC    OD 6511   1.123   3.460   5.397  0.0919 -0.6226  0.3669
  126POPC    CC 6512   1.177   3.431   5.268  0.1384  0.4374  0.1436
  126POPC    CD 6513   1.081   3.350   5.180  0.4574 -0.0300  0.2247
  126POPC    OE 6514   1.131   3.284   5.063 -0.2616  0.2044 -0.2267
  126POPC   C1A 6515   1.210   3.177   5.079 -0.2353  0.2422 -0.0962
  126POPC    OF 6516   1.214   3.118   5.186  0.0606  0.3640 -0.0404
  126POPC   C1B 6517   1.274   3.138   4.951  0.0245  0.1282  0.0702
  126POPC   C1C 6518   1.198   3.015   4.901  0.1977 -0.2115  0.6241
  126POPC   C1D 6519   1.257   2.955   4.773 -0.2396  0.9734 -0.1539
  126POPC   C1E 6520   1.193   2.831   4.709  0.4837  0.4198  0.1849
  126POPC   C1F 6521   1.046   2.837   4.667  0.4288  0.2064  0.3444
  126POPC   C1G 6522   1.021   2.690   4.629  0.0019  0.2257  0.5506
  126POPC   C1H 6523   0.876   2.668   4.587  0.0930  0.2811  0.2069
  126POPC   C1I 6524   0.775   2.653   4.701 -0.2836 -0.2500 -0.1874
  126POPC   C1J 6525   0.649   2.689   4.679 -0.3357 -0.3293 -0.0199
  126POPC   C1K 6526   0.608   2.718   4.534 -0.2334 -0.1756 -0.0168
  126POPC   C1L 6527   0.471   2.657   4.503 -0.1885 -0.4210  0.2647
  126POPC   C1M 6528   0.492   2.506   4.496  0.2584 -0.3515  0.0699
  126POPC   C1N 6529   0.366   2.422   4.476  0.3753 -0.5012 -0.0486
  126POPC   C1O 6530   0.392   2.273   4.452  0.0325 -0.6374  0.4105
  126POPC   C1P 6531   0.391   2.236   4.303 -1.0307  0.0515  0.2297
  126POPC   C1Q 6532   0.470   2.105   4.303  0.1368  0.7362 -0.5417
  126POPC   C1R 6533   0.466   2.037   4.166  0.3191  0.1956 -0.2835
  126POPC    CE 6534   0.956   3.435   5.155  0.5999  0.3162  0.6655
  126POPC    OG 6535   0.970   3.564   5.096 -0.1192  0.0158 -0.1961
  126POPC   C2A 6536   0.915   3.664   5.164 -0.3865  0.0031 -0.3925
  126POPC    OH 6537   0.833   3.644   5.254  0.4586 -0.3139  0.3356
  126POPC   C2B 6538   0.941   3.796   5.104  0.3472  0.0211 -0.0519
  126POPC   C2C 6539   0.819   3.849   5.028  0.5567  0.3632 -0.1566
  126POPC   C2D 6540   0.842   3.972   4.940  0.0274  0.4727 -0.1463
  126POPC   C2E 6541   0.730   3.985   4.837  0.0216 -0.3485 -0.2531
  126POPC   C2F 6542   0.750   4.108   4.748 -0.3224  0.4282  0.7255
  126POPC   C2G 6543   0.624   4.111   4.661  0.2713 -0.3347 -0.1766
  126POPC   C2H 6544   0.618   4.224   4.558 -0.4428 -0.1567  0.0511
  126POPC   C2I 6545   0.507   4.187   4.460 -0.1869 -0.1627 -0.2369
  126POPC   C2J 6546   0.487   4.261   4.327 -0.3328 -0.0652 -0.1601
  126POPC   C2K 6547   0.615   4.271   4.244 -0.2415  0.4742  0.0391
  126POPC   C2L 6548   0.599   4.338   4.107 -0.1633  0.1071 -0.1495
  126POPC   C2M 6549   0.533   4.475   4.099 -0.0849  0.1693  0.2244
  126POPC   C2N 6550   0.466   4.498   3.963 -0.0013  0.5902  0.2529
  126POPC   C2O 6551   0.376   4.621   3.978 -0.3868  0.2671  0.6392
  126POPC   C2P 6552   0.291   4.655   3.856  0.5641 -0.4166 -0.2317
  127POPC   CN1 6553   4.372   4.106   5.857 -0.2199  0.1340  0.1772
  127POPC   CN2 6554   4.502   3.936   5.767 -0.2790  0.3811 -0.6004
  127POPC   CN3 6555   4.465   3.956   0.017  0.2738  0.1917  0.3842
  127POPC   NTM 6556   4.488   4.020   5.887 -0.5567 -0.4119 -0.0726
  127POPC    CA 6557   4.601   4.113   5.897 -0.6529 -0.2848 -0.1553
  127POPC    CB 6558   4.748   4.070   5.898 -0.5150  0.1797 -0.0727
  127POPC    OA 6559   4.803   3.978   5.802 -0.0695  0.1844  0.1784
  127POPC     P 6560   4.854   4.047   5.666 -0.0206 -0.2240 -0.0121
  127POPC    OB 6561   4.947   3.956   5.596 -0.0895 -0.6307  0.4189
  127POPC    OC 6562   4.875   4.193   5.682 -0.2901 -0.1410 -0.4082
  127POPC    OD 6563   4.719   4.022   5.582  0.1373 -0.4103 -0.2093
  127POPC    CC 6564   4.727   4.063   5.445  0.3419  0.0853 -0.0541
  127POPC    CD 6565   4.591   4.049   5.375  0.3353 -0.0754 -0.0104
  127POPC    OE 6566   4.583   4.051   5.233 -0.0046  0.1177  0.0109
  127POPC   C1A 6567   4.575   3.932   5.174  0.1200  0.0413  0.1478
  127POPC    OF 6568   4.547   3.830   5.237 -0.3646  0.3621  0.4582
  127POPC   C1B 6569   4.603   3.935   5.028 -0.0415  0.0755  0.1173
  127POPC   C1C 6570   4.499   3.994   4.934  0.1754  0.3676  0.0606
  127POPC   C1D 6571   4.465   4.142   4.957  0.1100  0.4776 -0.7121
  127POPC   C1E 6572   4.583   4.238   4.947  0.1791  0.5271  0.4897
  127POPC   C1F 6573   4.562   4.311   4.815  0.5423  0.0955  0.1898
  127POPC   C1G 6574   4.677   4.409   4.793  0.1994  0.4223 -0.1659
  127POPC   C1H 6575   4.657   4.490   4.665 -0.1194 -0.2735 -0.5624
  127POPC   C1I 6576   4.537   4.583   4.686  0.5746  0.3181  0.8761
  127POPC   C1J 6577   4.532   4.692   4.610 -0.2716 -0.4782 -0.2404
  127POPC   C1K 6578   4.649   4.714   4.514 -0.2196 -0.1053 -0.0929
  127POPC   C1L 6579   4.611   4.826   4.417 -0.2811 -0.2205 -0.2027
  127POPC   C1M 6580   4.676   4.813   4.280  0.0937 -0.0834 -0.0410
  127POPC   C1N 6581   4.829   4.805   4.269  0.1236  0.0235  0.3006
  127POPC   C1O 6582   4.899   4.931   4.321  0.0924 -0.0584  0.5421
  127POPC   C1P 6583   4.976   4.994   4.205 -0.4008  0.1467  0.3240
  127POPC   C1Q 6584   5.088   4.904   4.152 -0.2180  0.4054  0.2670
  127POPC   C1R 6585   5.121   4.935   4.005 -0.3240  0.2539  0.2107
  127POPC    CE 6586   4.498   4.154   5.437  0.3787  0.1809 -0.3810
  127POPC    OG 6587   4.563   4.281   5.449  0.6337  0.0515 -0.3878
  127POPC   C2A 6588   4.507   4.357   5.543 -0.1964 -0.3256 -0.5712
  127POPC    OH 6589   4.434   4.317   5.635  0.4161 -0.0042  0.0626
  127POPC   C2B 6590   4.554   4.497   5.546 -0.0269 -0.3788 -0.7779
  127POPC   C2C 6591   4.469   4.596   5.466 -0.0751  0.1315 -0.1024
  127POPC   C2D 6592   4.457   4.577   5.314  0.0212 -0.1187 -0.0775
  127POPC   C2E 6593   4.586   4.597   5.234  0.2360  0.5681  0.4348
  127POPC   C2F 6594   4.604   4.738   5.179  0.0913  0.4187  0.0004
  127POPC   C2G 6595   4.745   4.749   5.119  0.0572  0.0257 -0.1539
  127POPC   C2H 6596   4.778   4.883   5.053  0.8678  0.0316  0.2502
  127POPC   C2I 6597   4.716   4.882   4.913  0.4730 -0.6744  0.4262
  127POPC   C2J 6598   4.769   4.989   4.817  0.0663 -0.2935  0.6162
  127POPC   C2K 6599   4.918   4.962   4.792  0.1061 -0.0655  0.6115
  127POPC   C2L 6600   4.995   5.073   4.720  0.0245 -0.3109  0.1443
  127POPC   C2M 6601   5.140   5.030   4.702  0.1328  0.0317  0.1840
  127POPC   C2N 6602   5.214   5.110   4.594  0.0340  0.2326  0.2663
  127POPC   C2O 6603   5.343   5.041   4.552 -0.1218 -0.2561  0.5826
  127POPC   C2P 6604   5.315   4.902   4.494  0.1731  0.1875 -0.6672
  128POPC   CN1 6605   5.726   3.216   0.342  0.1668 -0.0552  0.4108
  128POPC   CN2 6606   5.709   3.174   0.103 -0.2517 -0.5020 -0.0413
  128POPC   CN3 6607   5.541   3.097   0.250  0.2056 -0.2532 -0.4135
  128POPC   NTM 6608   5.685   3.121   0.238  0.2154  0.0730  0.2742
  128POPC    CA 6609   5.750   2.993   0.274 -0.1252 -0.1254  0.1906
  128POPC    CB 6610   5.767   2.875   0.179 -0.2166 -0.2191  0.2905
  128POPC    OA 6611   5.655   2.816   0.112  0.1598 -0.0549 -0.4950
  128POPC     P 6612   5.672   2.659   0.080 -0.3768 -0.2462  0.1379
  128POPC    OB 6613   5.530   2.629   0.049 -0.3221 -0.1752 -0.1846
  128POPC    OC 6614   5.749   2.606   0.195 -0.3880 -0.5323  0.0136
  128POPC    OD 6615   5.761   2.667   5.946 -0.3647 -0.1898  0.1490
  128POPC    CC 6616   5.690   2.668   5.822 -0.3564  0.1606  0.1443
  128POPC    CD 6617   5.611   2.789   5.773 -0.3516  0.0871 -0.0491
  128POPC    OE 6618   5.563   2.768   5.640 -0.2224  0.0989 -0.0980
  128POPC   C1A 6619   5.463   2.843   5.595 -0.3647 -0.1685 -0.2301
  128POPC    OF 6620   5.388   2.894   5.678  0.0382 -0.6314  0.4209
  128POPC   C1B 6621   5.442   2.832   5.449  0.3951 -0.2579 -0.3374
  128POPC   C1C 6622   5.361   2.946   5.387 -0.0031 -0.2804  0.1351
  128POPC   C1D 6623   5.440   3.076   5.371  0.1956 -0.4642 -0.3816
  128POPC   C1E 6624   5.360   3.185   5.298  0.4248 -0.0982 -0.0932
  128POPC   C1F 6625   5.444   3.312   5.309  0.1709  0.0901 -0.3101
  128POPC   C1G 6626   5.382   3.424   5.225  0.0228 -0.4579 -0.9366
  128POPC   C1H 6627   5.482   3.533   5.188  0.4426 -0.4310  0.2402
  128POPC   C1I 6628   5.428   3.658   5.118  0.4056 -0.4385  0.2554
  128POPC   C1J 6629   5.452   3.687   4.990 -0.5436 -0.4681  0.0657
  128POPC   C1K 6630   5.522   3.588   4.897 -0.0442 -0.0525 -0.0063
  128POPC   C1L 6631   5.524   3.631   4.750 -0.1648 -0.0197  0.0015
  128POPC   C1M 6632   5.581   3.527   4.653 -0.0552 -0.0816  0.1314
  128POPC   C1N 6633   5.522   3.562   4.516 -0.0770  0.3640  0.2538
  128POPC   C1O 6634   5.542   3.456   4.408  0.1628  0.3504  0.3100
  128POPC   C1P 6635   5.498   3.517   4.275 -0.3206 -0.3052  0.1640
  128POPC   C1Q 6636   5.514   3.416   4.161  0.7702  0.3982 -0.3237
  128POPC   C1R 6637   5.471   3.476   4.027 -1.1718 -0.6634 -0.2119
  128POPC    CE 6638   5.694   2.916   5.790  0.3290 -0.4343  0.5815
  128POPC    OG 6639   5.835   2.918   5.765  0.1378 -0.1448 -0.5401
  128POPC   C2A 6640   5.891   3.039   5.758  0.2084 -0.0878  0.7819
  128POPC    OH 6641   5.831   3.141   5.792  0.1916  0.0027  0.4841
  128POPC   C2B 6642   6.029   3.038   5.707 -0.1148 -0.3177 -0.0955
  128POPC   C2C 6643   6.035   3.090   5.563  0.3245  0.4653  0.1959
  128POPC   C2D 6644   5.989   2.986   5.460  0.5771  0.4026  0.1435
  128POPC   C2E 6645   5.967   3.043   5.320  0.1441  0.2899  0.1623
  128POPC   C2F 6646   5.845   3.135   5.323  0.2647  0.4466  0.2819
  128POPC   C2G 6647   5.805   3.177   5.181 -0.0502 -0.3024  0.1463
  128POPC   C2H 6648   5.738   3.069   5.096  0.2122 -0.1055 -0.3125
  128POPC   C2I 6649   5.712   3.121   4.955  0.2914 -0.9563 -0.6502
  128POPC   C2J 6650   5.619   3.048   4.858 -0.1609 -0.8101 -0.3311
  128POPC   C2K 6651   5.521   3.146   4.793  0.3812 -0.3349 -0.4374
  128POPC   C2L 6652   5.439   3.076   4.685  0.3975 -0.1121 -0.5947
  128POPC   C2M 6653   5.351   3.189   4.631  0.3068 -0.1775 -0.5838
  128POPC   C2N 6654   5.228   3.117   4.575 -0.2496  0.1952  0.1399
  128POPC   C2O 6655   5.147   3.234   4.519 -0.2209  0.1111 -0.0792
  128POPC   C2P 6656   5.028   3.165   4.453 -0.1465  0.0163 -0.1152
   6.31000   6.34000   6.00000
