pure POPC
 6656
    1POPC   CN1    1   0.256   2.533   1.586 -0.2424 -0.2344 -0.0897
    1POPC   CN2    2   0.432   2.539   1.423  0.0610 -0.0889 -0.0186
    1POPC   CN3    3   0.263   2.707   1.423 -0.7200  0.0683  0.4717
    1POPC   NTM    4   0.289   2.564   1.446  0.1167  0.1482  0.0782
    1POPC    CA    5   0.206   2.491   1.349  0.8113  0.2853 -0.6243
    1POPC    CB    6   0.177   2.341   1.356  0.1014  0.4751  0.6932
    1POPC    OA    7   0.297   2.270   1.386 -0.0920 -0.0592  0.2290
    1POPC     P    8   0.255   2.136   1.465 -0.3561 -0.1171 -0.0103
    1POPC    OB    9   0.157   2.067   1.378 -0.4157 -0.0614  0.0125
    1POPC    OC   10   0.209   2.184   1.597 -0.0506  0.4321 -0.1013
    1POPC    OD   11   0.390   2.051   1.477 -0.4327 -0.2163  0.1509
    1POPC    CC   12   0.492   2.135   1.533 -0.3899 -0.2562  0.1331
    1POPC    CD   13   0.533   2.105   1.677  0.0193 -0.5821 -0.0506
    1POPC    OE   14   0.633   2.194   1.727 -0.1917 -0.3188 -0.0980
    1POPC   C1A   15   0.609   2.323   1.750  0.0929 -0.2673 -0.0845
    1POPC    OF   16   0.515   2.384   1.701 -0.2229 -0.2698  0.5048
    1POPC   C1B   17   0.727   2.385   1.815  0.0278  0.0340 -0.2523
    1POPC   C1C   18   0.699   2.492   1.920  0.2428 -0.0892 -0.0680
    1POPC   C1D   19   0.631   2.443   2.048  0.2378 -0.2725 -0.1404
    1POPC   C1E   20   0.594   2.559   2.141  0.8323  0.1466 -0.4219
    1POPC   C1F   21   0.599   2.492   2.278  0.5176 -0.1966 -0.5751
    1POPC   C1G   22   0.480   2.402   2.309 -0.0793  0.4849 -0.8758
    1POPC   C1H   23   0.492   2.312   2.432  0.0322 -0.0595 -1.2847
    1POPC   C1I   24   0.349   2.270   2.469  0.3816  0.1254  0.3309
    1POPC   C1J   25   0.337   2.151   2.527  0.1249  0.1387  0.3030
    1POPC   C1K   26   0.452   2.063   2.577 -0.2113 -0.2911  0.3304
    1POPC   C1L   27   0.441   2.011   2.720  0.4236  0.0809  0.5174
    1POPC   C1M   28   0.334   1.903   2.734  0.5248 -0.0530  0.2614
    1POPC   C1N   29   0.300   1.869   2.879 -0.4511  0.8145  0.2473
    1POPC   C1O   30   0.430   1.834   2.952 -0.3262  0.3264 -0.2017
    1POPC   C1P   31   0.385   1.796   3.093  0.5056  0.1118  0.0105
    1POPC   C1Q   32   0.506   1.789   3.186  0.1794 -0.4014  0.4035
    1POPC   C1R   33   0.555   1.927   3.231 -0.2631 -0.2835  0.5278
    1POPC    CE   34   0.573   1.957   1.673  0.3595 -0.5079  0.4052
    1POPC    OG   35   0.574   1.875   1.789  0.0341 -0.7058  0.2712
    1POPC   C2A   36   0.611   1.751   1.759  0.6632 -0.4805  0.1008
    1POPC    OH   37   0.617   1.709   1.643  0.2896 -0.9377  0.2434
    1POPC   C2B   38   0.588   1.668   1.879  0.2112 -0.1239  0.2632
    1POPC   C2C   39   0.724   1.639   1.943  0.3254 -0.3609 -0.0819
    1POPC   C2D   40   0.702   1.515   2.030 -0.7002  0.3396  0.6834
    1POPC   C2E   41   0.814   1.491   2.131 -0.7010  0.7346  0.7810
    1POPC   C2F   42   0.789   1.357   2.202 -0.3025 -0.0627 -0.5423
    1POPC   C2G   43   0.901   1.324   2.301 -0.0224  0.4723 -0.6764
    1POPC   C2H   44   0.846   1.194   2.359  0.0433  0.7185 -0.0531
    1POPC   C2I   45   0.935   1.149   2.475 -0.0464  0.0147 -0.2530
    1POPC   C2J   46   0.913   1.005   2.522  0.3239 -0.1119 -0.4650
    1POPC   C2K   47   0.988   0.977   2.652  0.0393  0.2148 -0.2309
    1POPC   C2L   48   0.911   0.870   2.730  0.2213 -0.0013 -0.3465
    1POPC   C2M   49   0.931   0.736   2.659 -0.3230 -0.3644  0.1716
    1POPC   C2N   50   0.907   0.618   2.753 -0.3573 -0.4966 -0.0019
    1POPC   C2O   51   1.020   0.591   2.853  0.0820 -0.2432 -0.4209
    1POPC   C2P   52   0.966   0.502   2.966 -0.1283  0.1510 -0.2094
    2POPC   CN1   53   3.275   0.527   1.202 -0.4630 -0.0046  0.3675
    2POPC   CN2   54   3.388   0.390   1.062  0.1128 -0.2470 -0.3723
    2POPC   CN3   55   3.230   0.545   0.962 -0.4057  0.0744  0.4234
    2POPC   NTM   56   3.256   0.455   1.075  0.3091  0.0324  0.2301
    2POPC    CA   57   3.134   0.374   1.084  0.4622 -0.1770  0.4472
    2POPC    CB   58   3.116   0.251   0.995 -0.1013  0.2890 -0.0918
    2POPC    OA   59   3.195   0.133   1.010 -0.4782  0.0750  0.2681
    2POPC     P   60   3.111   0.015   1.080 -0.1970 -0.2479  0.0690
    2POPC    OB   61   3.203   6.240   1.091  0.3162  0.1674  0.1120
    2POPC    OC   62   2.975   0.005   1.021 -0.1910 -0.5410  0.1018
    2POPC    OD   63   3.102   0.067   1.232 -0.0723  0.2221 -0.0826
    2POPC    CC   64   3.207   0.035   1.323 -0.4029  0.0014  0.2257
    2POPC    CD   65   3.221   0.157   1.415  0.0694  0.2381 -0.1539
    2POPC    OE   66   3.339   0.143   1.495  0.0783 -0.1112 -0.2269
    2POPC   C1A   67   3.438   0.227   1.464  0.4234 -0.5343 -0.2805
    2POPC    OF   68   3.419   0.308   1.374 -0.6828  0.1761  0.5656
    2POPC   C1B   69   3.564   0.221   1.541  0.3676 -0.3517 -0.1742
    2POPC   C1C   70   3.573   0.104   1.639  0.2199 -0.0204  0.2341
    2POPC   C1D   71   3.717   0.071   1.678  0.2470  0.1361  0.2685
    2POPC   C1E   72   3.813   0.035   1.564  0.2557  0.6169  0.1209
    2POPC   C1F   73   3.961   0.013   1.598  0.2692  0.6593  0.0895
    2POPC   C1G   74   4.041   0.017   1.468  0.2959  0.9483  0.1137
    2POPC   C1H   75   4.191   6.337   1.490  0.1796 -0.1415 -0.0324
    2POPC   C1I   76   4.232   6.220   1.578 -0.4527 -0.2046  0.1791
    2POPC   C1J   77   4.325   6.226   1.673 -0.0655  0.2346 -0.2248
    2POPC   C1K   78   4.402   0.016   1.700 -0.0013  0.2400 -0.4363
    2POPC   C1L   79   4.420   0.047   1.849 -0.3051  0.6548 -0.4860
    2POPC   C1M   80   4.288   0.080   1.919 -0.0651  0.1056  0.2310
    2POPC   C1N   81   4.319   0.088   2.068  0.1742 -0.0468  0.1893
    2POPC   C1O   82   4.213   0.157   2.154 -0.2419 -0.0601 -0.3090
    2POPC   C1P   83   4.245   0.149   2.304 -0.3317  0.1350 -0.2799
    2POPC   C1Q   84   4.177   0.251   2.396  0.7706  0.5166  0.1257
    2POPC   C1R   85   4.233   0.211   2.532 -0.3033 -0.5793  0.2560
    2POPC    CE   86   3.099   0.173   1.506  0.4222  0.6814  0.2423
    2POPC    OG   87   3.091   0.296   1.578  0.5870  0.1774  1.1378
    2POPC   C2A   88   3.059   0.400   1.501 -0.1412 -0.6648  0.2890
    2POPC    OH   89   2.997   0.377   1.397  0.2119  0.3072 -0.1481
    2POPC   C2B   90   3.102   0.531   1.554 -0.1950 -0.4353 -0.2282
    2POPC   C2C   91   2.992   0.587   1.645 -0.1542 -0.2122 -0.3160
    2POPC   C2D   92   3.050   0.673   1.757 -0.4528 -0.8293  0.3211
    2POPC   C2E   93   3.158   0.600   1.837  0.0057 -0.1893  0.2960
    2POPC   C2F   94   3.101   0.482   1.915  0.2145 -0.5902 -0.1539
    2POPC   C2G   95   3.209   0.395   1.980  0.5519  0.1199  0.2424
    2POPC   C2H   96   3.176   0.332   2.115  0.5051  0.2246  0.2801
    2POPC   C2I   97   3.298   0.251   2.157  0.3397 -0.0963  0.1497
    2POPC   C2J   98   3.276   0.166   2.283 -0.2234 -0.2357 -0.0400
    2POPC   C2K   99   3.400   0.090   2.332 -0.1457 -0.0245  0.0928
    2POPC   C2L  100   3.386   0.055   2.481  0.5902 -0.6211  0.0260
    2POPC   C2M  101   3.503   6.301   2.514  0.8221 -0.4098 -0.1867
    2POPC   C2N  102   3.494   6.242   2.655  0.3672  0.5886  0.2178
    2POPC   C2O  103   3.585   6.122   2.682  0.1804  0.4555  0.2566
    2POPC   C2P  104   3.571   6.075   2.826  1.0929  0.5364  0.3809
    3POPC   CN1  105   2.421   0.400   0.450  1.0770 -0.1007 -0.0698
    3POPC   CN2  106   2.375   0.451   0.681 -0.4805  0.2061 -0.2786
    3POPC   CN3  107   2.548   0.568   0.563  0.5957 -0.2694 -0.3698
    3POPC   NTM  108   2.480   0.439   0.579  0.1028  0.0681  0.3315
    3POPC    CA  109   2.565   0.323   0.607 -0.0722 -0.0973  0.1847
    3POPC    CB  110   2.694   0.336   0.689  0.0167 -0.0547  0.0381
    3POPC    OA  111   2.672   0.402   0.814 -0.1439  0.5179 -0.2887
    3POPC     P  112   2.812   0.475   0.845 -0.0295  0.1546  0.0548
    3POPC    OB  113   2.911   0.444   0.739 -0.1181  0.2776 -0.0642
    3POPC    OC  114   2.837   0.435   0.985 -0.0505 -0.5881 -0.1495
    3POPC    OD  115   2.771   0.630   0.830 -0.1674  0.0795 -0.3620
    3POPC    CC  116   2.709   0.693   0.942  0.1247  0.0179 -0.1654
    3POPC    CD  117   2.563   0.672   0.983  0.2031 -0.1200  0.0498
    3POPC    OE  118   2.484   0.792   0.978 -0.3179 -0.4506  0.2354
    3POPC   C1A  119   2.385   0.797   0.890  0.0042  0.0686 -0.1022
    3POPC    OF  120   2.382   0.719   0.796 -0.0693 -0.2301  0.1466
    3POPC   C1B  121   2.302   0.920   0.898 -0.4175 -0.2101 -0.1589
    3POPC   C1C  122   2.171   0.897   0.973 -0.6653  0.1133 -0.4870
    3POPC   C1D  123   2.186   0.869   1.123 -0.1485 -0.2671 -0.6048
    3POPC   C1E  124   2.045   0.873   1.183  0.1440  0.1218  0.0673
    3POPC   C1F  125   2.049   0.815   1.324 -0.0826 -0.5595 -0.2031
    3POPC   C1G  126   1.900   0.801   1.358 -0.0329 -0.5720  0.0118
    3POPC   C1H  127   1.879   0.787   1.509 -0.4130  0.5372  0.0731
    3POPC   C1I  128   1.736   0.759   1.556 -0.2129  0.0389  0.3951
    3POPC   C1J  129   1.681   0.826   1.656 -0.9219  0.2713 -0.1454
    3POPC   C1K  130   1.757   0.943   1.719 -0.1641 -0.2128 -0.1595
    3POPC   C1L  131   1.717   0.958   1.866 -0.0473 -0.0677 -0.1427
    3POPC   C1M  132   1.790   1.074   1.935 -0.5895  0.0161  0.2962
    3POPC   C1N  133   1.737   1.078   2.078 -0.2978 -0.0353  0.4052
    3POPC   C1O  134   1.584   1.084   2.082 -0.3169  0.1377 -0.4049
    3POPC   C1P  135   1.520   1.079   2.221  0.0215 -0.0473 -0.2543
    3POPC   C1Q  136   1.370   1.101   2.205 -0.0851 -0.2709  0.4179
    3POPC   C1R  137   1.337   1.246   2.169  0.1091 -0.2790  0.2113
    3POPC    CE  138   2.550   0.579   1.103  0.1945 -0.2392 -0.0433
    3POPC    OG  139   2.597   0.627   1.229 -0.3577 -0.3778  0.2219
    3POPC   C2A  140   2.591   0.535   1.324  0.0619 -0.2235  0.4023
    3POPC    OH  141   2.560   0.420   1.293 -0.0930 -0.1841  0.4116
    3POPC   C2B  142   2.618   0.584   1.461  0.2836  0.6118  0.0639
    3POPC   C2C  143   2.485   0.625   1.526  0.0121 -0.3755  0.1479
    3POPC   C2D  144   2.446   0.766   1.481 -1.0582 -0.6383  0.2298
    3POPC   C2E  145   2.366   0.834   1.592 -0.3630  0.3345  0.1410
    3POPC   C2F  146   2.235   0.770   1.637  0.2167 -0.6896  0.3919
    3POPC   C2G  147   2.181   0.817   1.772 -0.1621  0.1584 -0.0444
    3POPC   C2H  148   2.275   0.783   1.888 -0.7257 -0.3427  0.2797
    3POPC   C2I  149   2.267   0.861   2.019  0.3387 -0.3044  0.3357
    3POPC   C2J  150   2.127   0.883   2.077  0.3101  0.6782 -0.0779
    3POPC   C2K  151   2.122   0.942   2.218  0.1169 -0.0583  0.2335
    3POPC   C2L  152   2.120   0.834   2.325  0.0000 -0.1943  0.0943
    3POPC   C2M  153   2.089   0.880   2.468  0.4218  0.5895 -0.0614
    3POPC   C2N  154   1.960   0.955   2.500  0.1700  0.3068 -0.4013
    3POPC   C2O  155   1.937   0.994   2.646 -0.2428 -0.3692 -0.2820
    3POPC   C2P  156   2.053   1.078   2.700 -0.3234 -0.2610 -0.2765
    4POPC   CN1  157   3.887   1.497   1.349  0.0964  0.3402 -0.6056
    4POPC   CN2  158   4.120   1.536   1.312  0.3981 -0.0696 -0.8191
    4POPC   CN3  159   3.961   1.717   1.328 -0.3842 -0.4336  0.1908
    4POPC   NTM  160   3.984   1.581   1.278  0.3748 -0.0106 -0.6448
    4POPC    CA  161   3.944   1.583   1.137  0.0426  0.4840 -0.5471
    4POPC    CB  162   3.957   1.463   1.043  0.0258  0.0116  0.0464
    4POPC    OA  163   3.896   1.338   1.077 -0.0570  0.1058  0.2407
    4POPC     P  164   3.987   1.207   1.060 -0.1367  0.0760  0.0469
    4POPC    OB  165   4.120   1.249   1.012  0.2019 -0.9216  0.0934
    4POPC    OC  166   3.906   1.105   0.989  0.6062 -0.2203 -0.3849
    4POPC    OD  167   4.010   1.167   1.214  0.0004  0.4028  0.1105
    4POPC    CC  168   3.904   1.089   1.270  0.0640  0.0815 -0.2151
    4POPC    CD  169   3.928   1.000   1.392 -0.1097  0.0579 -0.1976
    4POPC    OE  170   4.002   0.881   1.361 -0.1055 -0.1043  0.4310
    4POPC   C1A  171   4.105   0.843   1.436 -0.3267 -0.5775  0.5009
    4POPC    OF  172   4.192   0.784   1.370  0.1553  0.5318  0.1244
    4POPC   C1B  173   4.130   0.906   1.567  0.3089  0.4951 -0.1218
    4POPC   C1C  174   4.230   0.828   1.653  0.6319  0.5661 -0.4259
    4POPC   C1D  175   4.263   0.906   1.780  0.1252 -0.0816  0.1121
    4POPC   C1E  176   4.371   0.840   1.866 -0.7503 -0.3965  0.9957
    4POPC   C1F  177   4.398   0.927   1.989  0.2026  0.4417  0.2110
    4POPC   C1G  178   4.485   1.046   1.948 -0.2669  0.6001 -0.3283
    4POPC   C1H  179   4.535   1.148   2.051 -0.1309 -0.1493  0.3565
    4POPC   C1I  180   4.610   1.264   1.985 -0.1137 -0.2764  0.1507
    4POPC   C1J  181   4.742   1.280   1.999  0.0218 -1.0161 -0.1935
    4POPC   C1K  182   4.825   1.190   2.090  0.8668 -0.4070 -0.3530
    4POPC   C1L  183   4.938   1.270   2.155  0.4712 -0.2115  0.1064
    4POPC   C1M  184   4.965   1.234   2.301  0.1017 -0.4896  0.1058
    4POPC   C1N  185   4.852   1.284   2.391  0.3313  0.4399 -0.1161
    4POPC   C1O  186   4.897   1.267   2.536 -0.3381  0.2017  0.0658
    4POPC   C1P  187   4.925   1.120   2.564 -0.4612  0.1965  0.1617
    4POPC   C1Q  188   4.795   1.039   2.569 -0.2575 -0.1440  0.0116
    4POPC   C1R  189   4.804   0.913   2.655  0.4497 -0.1697 -0.0953
    4POPC    CE  190   3.788   0.974   1.447 -0.0713  0.2697 -0.0012
    4POPC    OG  191   3.735   1.049   1.557 -0.1599 -0.1879  0.2714
    4POPC   C2A  192   3.663   1.159   1.535 -0.7542 -0.6368 -0.0645
    4POPC    OH  193   3.676   1.222   1.431  0.2400 -0.2549  0.2793
    4POPC   C2B  194   3.596   1.220   1.652  0.4360  0.1442  0.2255
    4POPC   C2C  195   3.444   1.222   1.636  0.4292 -0.3796  0.2039
    4POPC   C2D  196   3.385   1.233   1.776  0.1134  0.0027  0.0437
    4POPC   C2E  197   3.233   1.228   1.759  0.0983  0.0842  0.1507
    4POPC   C2F  198   3.168   1.140   1.866 -0.4464  0.3423  0.0387
    4POPC   C2G  199   3.200   1.169   2.013  0.0555  0.6281 -0.1236
    4POPC   C2H  200   3.131   1.081   2.118  0.0018 -0.0725 -0.7359
    4POPC   C2I  201   3.172   0.934   2.124 -0.4239 -0.1559  0.3937
    4POPC   C2J  202   3.310   0.928   2.189 -0.0739  0.0238 -0.3255
    4POPC   C2K  203   3.292   0.874   2.331 -0.1509  0.2570 -0.2481
    4POPC   C2L  204   3.307   0.722   2.323  0.0732  0.2569  0.1548
    4POPC   C2M  205   3.426   0.675   2.406 -0.2138 -0.1883  0.3167
    4POPC   C2N  206   3.399   0.685   2.556 -0.1936 -0.1138  0.3151
    4POPC   C2O  207   3.528   0.708   2.634 -0.3541  0.4623  0.4160
    4POPC   C2P  208   3.518   0.686   2.785  0.5807  0.1737  0.4384
    5POPC   CN1  209   6.041   0.156   1.252  0.2629 -0.7683  0.0106
    5POPC   CN2  210   5.992   0.024   1.072 -0.0571 -0.6754 -0.0963
    5POPC   CN3  211   6.134   0.221   1.046 -0.3834 -0.4387  0.2209
    5POPC   NTM  212   6.013   0.166   1.108 -0.3151 -0.6935  0.1265
    5POPC    CA  213   5.891   0.238   1.068  0.0874  0.0332  0.2125
    5POPC    CB  214   5.854   0.384   1.096 -0.1972  0.0858 -0.4106
    5POPC    OA  215   5.958   0.472   1.052 -0.4722  0.3397 -0.5599
    5POPC     P  216   5.911   0.622   1.086 -0.1743  0.3441 -0.1548
    5POPC    OB  217   5.769   0.633   1.043 -0.2230  0.5159  0.0517
    5POPC    OC  218   6.000   0.720   1.021  0.0828  0.2357  0.0322
    5POPC    OD  219   5.925   0.598   1.245  0.3712 -0.0061 -0.2531
    5POPC    CC  220   6.048   0.618   1.315 -0.0372 -0.1212  0.5073
    5POPC    CD  221   6.176   0.543   1.281  0.1993  0.3722  0.2972
    5POPC    OE  222   6.218   0.456   1.387 -0.1783  0.0628  0.1926
    5POPC   C1A  223   6.307   0.360   1.363 -0.5186 -0.1329 -0.3039
    5POPC    OF  224   0.024   0.330   1.246  0.0738 -0.0756 -0.1835
    5POPC   C1B  225   0.057   0.307   1.487  0.3002  0.1686 -0.5651
    5POPC   C1C  226   0.185   0.383   1.523  0.2577 -0.2416  0.4898
    5POPC   C1D  227   0.305   0.298   1.566  0.4484 -0.2329 -0.0095
    5POPC   C1E  228   0.431   0.376   1.603  0.1529  0.5334 -0.5879
    5POPC   C1F  229   0.546   0.275   1.597  0.1256  0.4324  0.3476
    5POPC   C1G  230   0.687   0.334   1.590  0.4180 -0.2742  0.1981
    5POPC   C1H  231   0.714   0.414   1.718 -0.0548  0.3294 -0.0790
    5POPC   C1I  232   0.850   0.484   1.720  0.2171 -0.1686 -0.6023
    5POPC   C1J  233   0.903   0.497   1.842 -0.6242 -0.1870 -0.2253
    5POPC   C1K  234   0.836   0.444   1.969 -0.2857  0.1677  0.1043
    5POPC   C1L  235   0.936   0.416   2.081 -0.3214  0.2487  0.1557
    5POPC   C1M  236   0.868   0.351   2.201  0.0364 -0.4932 -0.0398
    5POPC   C1N  237   0.976   0.308   2.301 -0.0300 -0.1405  0.1871
    5POPC   C1O  238   0.916   0.215   2.407  0.2968 -0.3960  0.1485
    5POPC   C1P  239   1.034   0.192   2.503  0.1704  0.3942  0.5035
    5POPC   C1Q  240   0.992   0.126   2.634  0.0991  0.0232  0.2956
    5POPC   C1R  241   0.909   0.226   2.715  0.3241  0.0919  0.4424
    5POPC    CE  242   6.283   0.640   1.229 -0.1578  0.5944 -0.0229
    5POPC    OG  243   0.000   0.746   1.321 -0.5518  0.3730  0.3571
    5POPC   C2A  244   0.047   0.863   1.278  0.0762 -0.1393 -0.3988
    5POPC    OH  245   0.006   0.899   1.168  0.3910  0.5040 -0.3106
    5POPC   C2B  246   0.095   0.945   1.392 -0.3218 -0.5651  0.0802
    5POPC   C2C  247   6.295   0.993   1.487  0.1631 -0.6638  0.6906
    5POPC   C2D  248   0.057   1.048   1.611  0.5428  0.4553 -0.0188
    5POPC   C2E  249   6.267   1.099   1.715  0.3733 -0.6284  0.3511
    5POPC   C2F  250   0.018   1.140   1.849 -0.0500 -0.1278  0.3909
    5POPC   C2G  251   0.066   1.020   1.931  0.3738 -0.0142  0.3120
    5POPC   C2H  252   6.271   0.939   2.008 -0.2785 -0.1006 -0.6524
    5POPC   C2I  253   0.015   0.825   2.095 -0.1302  0.6643  0.2619
    5POPC   C2J  254   0.021   0.850   2.246 -0.2341  0.1657  0.3487
    5POPC   C2K  255   0.101   0.740   2.317  0.1125  0.3780  0.2935
    5POPC   C2L  256   0.064   0.591   2.310  0.0225  0.3989  0.3229
    5POPC   C2M  257   6.251   0.557   2.396  0.0970 -0.9412 -0.0878
    5POPC   C2N  258   6.263   0.577   2.547  0.3814  0.7347 -0.3157
    5POPC   C2O  259   0.059   0.482   2.603 -0.1170  0.3168 -0.0792
    5POPC   C2P  260   0.086   0.522   2.749  0.6989  0.1713 -0.1878
    6POPC   CN1  261   3.416   1.293   0.993 -0.0975 -0.0828 -0.1380
    6POPC   CN2  262   3.402   1.236   1.241  0.2551  0.1045 -0.3480
    6POPC   CN3  263   3.597   1.213   1.123  0.2679  0.5276 -1.2286
    6POPC   NTM  264   3.451   1.206   1.106  0.1857 -0.1894 -0.3078
    6POPC    CA  265   3.421   1.066   1.070  0.0973 -0.2830  0.1233
    6POPC    CB  266   3.297   1.022   0.992  0.1610 -0.2438 -0.0010
    6POPC    OA  267   3.173   1.056   1.055  0.0561 -0.2656 -0.1948
    6POPC     P  268   3.058   0.949   1.021 -0.1666 -0.0189 -0.2221
    6POPC    OB  269   3.082   0.903   0.882  0.1667 -0.6446  0.0360
    6POPC    OC  270   2.932   1.014   1.061 -0.2004 -0.1456 -0.1227
    6POPC    OD  271   3.104   0.834   1.124 -0.7360 -0.2392 -0.2088
    6POPC    CC  272   3.048   0.865   1.251  0.0224 -0.8233  0.2804
    6POPC    CD  273   3.147   0.914   1.356 -0.1707 -0.0691  0.1162
    6POPC    OE  274   3.238   0.810   1.395 -0.0748 -0.0155  0.0363
    6POPC   C1A  275   3.361   0.852   1.420 -0.2017  0.1294  0.4220
    6POPC    OF  276   3.397   0.969   1.409  0.0383  0.0221  0.0411
    6POPC   C1B  277   3.446   0.751   1.485 -0.2212 -0.1940 -0.0505
    6POPC   C1C  278   3.446   0.763   1.638  0.0201  0.1969 -0.0801
    6POPC   C1D  279   3.535   0.658   1.705  0.3511  0.1824 -0.5327
    6POPC   C1E  280   3.542   0.676   1.857  0.0608  0.1897 -0.5196
    6POPC   C1F  281   3.630   0.794   1.898  0.2388 -0.1530  0.0984
    6POPC   C1G  282   3.775   0.756   1.928  0.1829 -0.5106 -0.0788
    6POPC   C1H  283   3.822   0.853   2.037 -0.6558 -0.3108  0.1103
    6POPC   C1I  284   3.962   0.838   2.096 -0.3311  0.9410 -0.2988
    6POPC   C1J  285   3.980   0.844   2.227  0.5234 -0.2672 -0.3429
    6POPC   C1K  286   3.869   0.877   2.327  0.7262 -0.1384 -0.1594
    6POPC   C1L  287   3.932   0.945   2.449  0.0425  0.1323  0.0503
    6POPC   C1M  288   3.815   1.009   2.524  0.2283 -0.1115  0.5546
    6POPC   C1N  289   3.876   1.105   2.626  0.0519  0.2228  0.3483
    6POPC   C1O  290   3.771   1.195   2.692 -0.3262 -0.2676  0.4217
    6POPC   C1P  291   3.771   1.329   2.619  0.3878 -0.5624 -0.1337
    6POPC   C1Q  292   3.700   1.440   2.697  0.7642 -0.1410 -0.3833
    6POPC   C1R  293   3.682   1.564   2.608  0.0139  0.3279  0.4080
    6POPC    CE  294   3.061   0.991   1.456  0.3143  0.3938  0.1867
    6POPC    OG  295   2.964   0.920   1.534  0.4527 -0.0750 -0.0715
    6POPC   C2A  296   2.863   0.997   1.571  0.6791  0.0901  0.2118
    6POPC    OH  297   2.826   1.090   1.500  0.1899  0.2454  0.6658
    6POPC   C2B  298   2.778   0.935   1.675  0.1461 -0.0382 -0.2910
    6POPC   C2C  299   2.744   1.040   1.782 -0.3905 -0.1850 -0.3115
    6POPC   C2D  300   2.671   0.984   1.904  0.2117 -0.0161  0.1299
    6POPC   C2E  301   2.769   0.900   1.987  0.0325 -0.1193  0.2373
    6POPC   C2F  302   2.693   0.830   2.099 -0.2958  0.3755  0.3285
    6POPC   C2G  303   2.804   0.764   2.182 -0.4208 -0.3372 -0.0631
    6POPC   C2H  304   2.757   0.654   2.277 -0.7944 -0.0483  0.0870
    6POPC   C2I  305   2.651   0.717   2.368 -0.5778  0.2946  0.1023
    6POPC   C2J  306   2.598   0.611   2.465 -0.0834 -0.1456 -0.1027
    6POPC   C2K  307   2.530   0.687   2.580 -0.0399 -0.1402 -0.0808
    6POPC   C2L  308   2.474   0.591   2.685 -0.4713  0.3031  0.0919
    6POPC   C2M  309   2.418   0.658   2.811 -0.3022  0.4315  0.0987
    6POPC   C2N  310   2.287   0.727   2.771 -0.6030 -0.2772 -0.1442
    6POPC   C2O  311   2.207   0.772   2.893  0.1818  0.4590  0.1068
    6POPC   C2P  312   2.270   0.877   2.986 -0.5515  0.6859  0.3536
    7POPC   CN1  313   4.510   0.728   1.379  0.4206  0.6858  0.4367
    7POPC   CN2  314   4.465   0.954   1.317 -0.3042  0.6099  0.0449
    7POPC   CN3  315   4.415   0.773   1.163  0.3575  0.1324 -0.2719
    7POPC   NTM  316   4.507   0.822   1.267 -0.4328  0.4783  0.2782
    7POPC    CA  317   4.646   0.828   1.219 -0.5859 -0.1220 -0.2590
    7POPC    CB  318   4.699   0.916   1.106 -0.3942  0.0934 -0.0059
    7POPC    OA  319   4.733   1.052   1.131  0.2689 -0.0191 -0.2782
    7POPC     P  320   4.858   1.088   1.226  0.1193  0.0659 -0.1133
    7POPC    OB  321   4.880   1.232   1.204  0.2539  0.0988  0.2184
    7POPC    OC  322   4.950   0.975   1.202 -0.2929 -0.4355  0.5996
    7POPC    OD  323   4.774   1.068   1.362  0.2137  0.3676 -0.0102
    7POPC    CC  324   4.733   1.194   1.416 -0.1113  0.3291 -0.1649
    7POPC    CD  325   4.664   1.204   1.552 -0.3373 -0.3156 -0.2270
    7POPC    OE  326   4.572   1.311   1.575  0.1398  0.0563 -0.0229
    7POPC   C1A  327   4.451   1.306   1.519  0.2099  0.0043 -0.1704
    7POPC    OF  328   4.428   1.227   1.427 -0.3295  0.3719 -0.3538
    7POPC   C1B  329   4.364   1.415   1.568  0.6838  0.2845  0.0513
    7POPC   C1C  330   4.308   1.363   1.701 -0.6110  0.4910 -0.4024
    7POPC   C1D  331   4.185   1.275   1.678 -0.1718 -0.1101 -0.4865
    7POPC   C1E  332   4.120   1.236   1.811  0.1198  0.0204 -0.3053
    7POPC   C1F  333   3.969   1.235   1.785  0.0738 -0.5647 -0.0326
    7POPC   C1G  334   3.891   1.223   1.916  0.5493 -0.2292  0.2872
    7POPC   C1H  335   3.936   1.328   2.018  0.3079  0.2005 -0.0442
    7POPC   C1I  336   3.860   1.337   2.150  0.5523  0.3751  0.0872
    7POPC   C1J  337   3.925   1.345   2.265  0.2953 -0.0926  0.2688
    7POPC   C1K  338   4.077   1.351   2.247  0.1915  0.5939 -0.4012
    7POPC   C1L  339   4.149   1.285   2.364 -0.2418  0.1026 -0.4089
    7POPC   C1M  340   4.228   1.159   2.326  0.1006  0.1639  0.0890
    7POPC   C1N  341   4.335   1.130   2.431  0.3219  0.0365 -0.1688
    7POPC   C1O  342   4.427   1.017   2.384 -0.4617 -0.5278 -0.3694
    7POPC   C1P  343   4.358   0.882   2.401 -0.0515 -0.7024 -0.0792
    7POPC   C1Q  344   4.449   0.767   2.359  0.3844 -0.4809  0.2471
    7POPC   C1R  345   4.383   0.654   2.280 -0.4482 -0.0562  0.3242
    7POPC    CE  346   4.776   1.164   1.648 -0.1734  0.0240 -0.2742
    7POPC    OG  347   4.896   1.242   1.654 -0.1571 -0.0160 -0.0641
    7POPC   C2A  348   4.999   1.182   1.712  0.3047 -0.3933 -1.2393
    7POPC    OH  349   4.985   1.069   1.759  0.1467  0.2361  0.2658
    7POPC   C2B  350   5.121   1.265   1.722  0.0072 -0.0817 -0.0050
    7POPC   C2C  351   5.206   1.247   1.848  0.2618  0.5828 -0.0748
    7POPC   C2D  352   5.282   1.114   1.850 -0.4001  0.2066  0.6195
    7POPC   C2E  353   5.368   1.090   1.974  0.3623  0.2593  0.1079
    7POPC   C2F  354   5.302   1.075   2.112  0.1276  0.4372  0.0164
    7POPC   C2G  355   5.415   1.036   2.207  0.2036  0.3342 -0.1144
    7POPC   C2H  356   5.357   0.964   2.328  0.2134  0.3820 -0.0813
    7POPC   C2I  357   5.464   0.918   2.428 -0.0577 -0.1799 -0.0466
    7POPC   C2J  358   5.398   0.823   2.529 -0.2086 -0.4845 -0.4247
    7POPC   C2K  359   5.507   0.764   2.619 -0.6353  0.5033  0.7818
    7POPC   C2L  360   5.529   0.863   2.733  0.6116  0.4181  0.6279
    7POPC   C2M  361   5.640   0.822   2.831  0.4602 -0.5509  0.4045
    7POPC   C2N  362   5.638   0.940   2.929 -0.0796 -0.0573 -0.1928
    7POPC   C2O  363   5.751   0.937   3.032  0.0825 -0.1444 -0.3727
    7POPC   C2P  364   5.707   0.835   3.137 -0.4004 -0.1616 -0.5891
    8POPC   CN1  365   5.764   0.907   1.401  0.2975 -1.0426 -0.7184
    8POPC   CN2  366   5.899   1.023   1.246 -0.1932 -0.4030 -0.0461
    8POPC   CN3  367   5.689   1.119   1.328 -0.5807  0.1929 -0.0855
    8POPC   NTM  368   5.759   0.997   1.285 -0.2252  0.2598  0.2964
    8POPC    CA  369   5.678   0.944   1.175  0.1784 -0.2661  0.2484
    8POPC    CB  370   5.672   1.012   1.037  0.1985  0.0868  0.4198
    8POPC    OA  371   5.566   1.105   1.018  0.1458 -0.1260 -0.3378
    8POPC     P  372   5.421   1.048   0.976 -0.1394  0.0449  0.3982
    8POPC    OB  373   5.405   0.906   1.014 -0.1510 -0.1714 -0.3822
    8POPC    OC  374   5.404   1.084   0.833  0.3358  0.0559  0.3432
    8POPC    OD  375   5.327   1.145   1.063  0.0108  0.5179  0.0443
    8POPC    CC  376   5.275   1.074   1.176  0.2954 -0.4486 -0.4199
    8POPC    CD  377   5.305   1.125   1.317 -0.1239 -0.5200 -0.3032
    8POPC    OE  378   5.269   1.033   1.421 -0.0138 -0.0348  0.1731
    8POPC   C1A  379   5.356   0.941   1.461 -0.1848 -0.1489  0.2855
    8POPC    OF  380   5.440   0.902   1.379 -0.6279  0.1869 -0.3443
    8POPC   C1B  381   5.313   0.859   1.576  0.1852 -0.7712 -0.0100
    8POPC   C1C  382   5.433   0.823   1.664  0.0801  0.7493  0.8048
    8POPC   C1D  383   5.419   0.728   1.783 -0.0856 -0.5108 -0.1941
    8POPC   C1E  384   5.548   0.686   1.853 -0.0284 -0.5715 -0.3339
    8POPC   C1F  385   5.516   0.587   1.965  0.1127  0.1882  0.3939
    8POPC   C1G  386   5.646   0.577   2.045  0.0561  0.0197  0.4642
    8POPC   C1H  387   5.624   0.530   2.189  0.4114 -0.2711  0.4244
    8POPC   C1I  388   5.748   0.448   2.226  1.0838  0.4501 -0.2052
    8POPC   C1J  389   5.854   0.503   2.286  0.7914 -0.1132  0.8500
    8POPC   C1K  390   5.830   0.638   2.354 -0.3702 -0.1291  0.4917
    8POPC   C1L  391   5.909   0.749   2.285 -0.0897 -0.2055  0.6928
    8POPC   C1M  392   5.880   0.885   2.349  0.2086  0.1098  0.1668
    8POPC   C1N  393   5.925   0.911   2.493  0.4758  0.1564  0.0763
    8POPC   C1O  394   5.878   1.051   2.533  0.3931  0.0286  0.4288
    8POPC   C1P  395   5.915   1.090   2.676 -0.0561  0.1365  0.5173
    8POPC   C1Q  396   5.856   1.226   2.715 -0.2959  0.1186  0.2228
    8POPC   C1R  397   5.894   1.261   2.859  0.2426  0.4595  0.0023
    8POPC    CE  398   5.237   1.262   1.326  0.2157 -0.3448 -0.3785
    8POPC    OG  399   5.265   1.336   1.445 -0.0516 -0.2145 -0.3958
    8POPC   C2A  400   5.343   1.443   1.429  0.3641 -0.3965  0.3378
    8POPC    OH  401   5.405   1.460   1.324 -0.0506  0.0712  0.1632
    8POPC   C2B  402   5.357   1.530   1.547 -0.0287 -0.1816  0.2288
    8POPC   C2C  403   5.487   1.501   1.623  0.0046 -0.7116 -0.0279
    8POPC   C2D  404   5.491   1.615   1.725  0.3511 -0.8423  0.1055
    8POPC   C2E  405   5.607   1.605   1.824  0.0268 -0.2267  0.5518
    8POPC   C2F  406   5.581   1.498   1.931  0.0357 -0.6432  0.1410
    8POPC   C2G  407   5.712   1.489   2.009  0.0618  0.9249  0.3224
    8POPC   C2H  408   5.701   1.403   2.135  0.8143  0.2546 -0.0570
    8POPC   C2I  409   5.619   1.482   2.237  0.0473 -0.5407 -0.0419
    8POPC   C2J  410   5.601   1.396   2.363 -0.3706 -0.1916  0.1393
    8POPC   C2K  411   5.494   1.456   2.454 -0.5600 -0.1179 -0.1332
    8POPC   C2L  412   5.461   1.386   2.585 -0.3332  0.3655  0.1855
    8POPC   C2M  413   5.371   1.263   2.568  0.3031 -0.0798 -0.0382
    8POPC   C2N  414   5.317   1.220   2.704 -0.0861  0.2891 -0.0726
    8POPC   C2O  415   5.239   1.088   2.709  0.1330  0.1394 -0.6021
    8POPC   C2P  416   5.190   1.039   2.845  0.2206 -0.4792 -0.7924
    9POPC   CN1  417   0.918   1.220   0.834  0.3538  0.0054  0.0742
    9POPC   CN2  418   0.864   1.216   0.612 -0.0219 -0.1440 -0.7063
    9POPC   CN3  419   0.928   1.429   0.713  0.1706 -0.6782 -0.1202
    9POPC   NTM  420   0.855   1.303   0.731  0.0996 -0.6646 -0.3115
    9POPC    CA  421   0.720   1.349   0.765  0.2256 -0.1773 -0.4580
    9POPC    CB  422   0.599   1.255   0.763 -0.5593  0.7970  0.0963
    9POPC    OA  423   0.619   1.145   0.852 -0.2072  0.1235 -0.8011
    9POPC     P  424   0.489   1.050   0.856 -0.1175  0.0363  0.2041
    9POPC    OB  425   0.376   1.114   0.785 -0.0190  0.1003  0.1061
    9POPC    OC  426   0.484   1.003   0.996 -0.0584 -0.0762  0.1690
    9POPC    OD  427   0.531   0.931   0.756  0.2717  0.4459 -0.1209
    9POPC    CC  428   0.615   0.825   0.802 -0.2684  0.0857  0.0349
    9POPC    CD  429   0.762   0.860   0.824 -0.1931 -0.0062 -0.3111
    9POPC    OE  430   0.847   0.784   0.738 -0.2263 -0.1487 -0.2197
    9POPC   C1A  431   0.965   0.838   0.708 -0.1337 -0.1738  0.0925
    9POPC    OF  432   0.995   0.955   0.728 -0.2897 -0.1197  0.0070
    9POPC   C1B  433   1.068   0.745   0.656 -0.3712 -0.5466  0.2830
    9POPC   C1C  434   1.156   0.673   0.758 -0.1556 -0.2794  0.2862
    9POPC   C1D  435   1.199   0.764   0.873 -0.2888 -0.0183  0.1306
    9POPC   C1E  436   1.257   0.685   0.990  0.2529 -0.3010 -0.3241
    9POPC   C1F  437   1.308   0.772   1.105 -0.1859 -0.6813  0.1642
    9POPC   C1G  438   1.349   0.673   1.215 -0.1481 -0.3904  0.4134
    9POPC   C1H  439   1.388   0.748   1.343  0.3366 -0.1343  0.1224
    9POPC   C1I  440   1.296   0.866   1.375  0.1340 -0.3328  0.2752
    9POPC   C1J  441   1.247   0.866   1.499 -0.9886  0.1858 -0.1529
    9POPC   C1K  442   1.284   0.751   1.593  0.3819  0.6729 -0.0759
    9POPC   C1L  443   1.294   0.808   1.735  0.2260  0.0799  0.1754
    9POPC   C1M  444   1.342   0.694   1.825 -0.2183 -0.3790 -0.1582
    9POPC   C1N  445   1.371   0.748   1.966 -0.6227  0.0554 -0.2373
    9POPC   C1O  446   1.259   0.737   2.069 -0.5168 -0.8868 -0.2125
    9POPC   C1P  447   1.325   0.700   2.202 -0.1330 -0.3514 -0.2546
    9POPC   C1Q  448   1.219   0.713   2.311 -0.1183 -0.7820 -0.1898
    9POPC   C1R  449   1.298   0.685   2.439 -0.3645  0.0984  0.1589
    9POPC    CE  450   0.788   0.878   0.974  0.1746  0.2340 -0.4024
    9POPC    OG  451   0.772   0.763   1.058  0.9831  0.2018 -0.2831
    9POPC   C2A  452   0.807   0.771   1.186  0.6655 -0.2741 -0.1665
    9POPC    OH  453   0.849   0.873   1.241  0.5531 -0.2696 -0.0882
    9POPC   C2B  454   0.808   0.634   1.242 -0.1722 -0.3707 -0.3733
    9POPC   C2C  455   0.943   0.562   1.245 -0.2305 -0.4648  0.0440
    9POPC   C2D  456   0.935   0.417   1.294  0.1295 -0.4623  0.1158
    9POPC   C2E  457   1.071   0.360   1.332  0.1217 -0.2408  0.4857
    9POPC   C2F  458   1.054   0.215   1.379 -0.4241 -0.3199  0.0473
    9POPC   C2G  459   1.167   0.175   1.474 -0.0032  0.1166 -0.2651
    9POPC   C2H  460   1.137   0.032   1.519  0.4944  0.1570  0.1952
    9POPC   C2I  461   1.227   6.328   1.635  0.2276 -0.4763  0.1628
    9POPC   C2J  462   1.200   0.080   1.754  0.0893  0.0616 -0.2804
    9POPC   C2K  463   1.298   0.053   1.869  0.1479  0.1092 -0.3189
    9POPC   C2L  464   1.289   0.176   1.959  0.1113 -0.0767 -0.0693
    9POPC   C2M  465   1.366   0.145   2.088 -0.2471 -0.0973  0.1408
    9POPC   C2N  466   1.352   0.257   2.191 -0.3240 -0.2801  0.3290
    9POPC   C2O  467   1.454   0.230   2.303  0.4725  0.7270 -0.1400
    9POPC   C2P  468   1.430   0.328   2.418  0.0863  0.0947  0.3266
   10POPC   CN1  469   5.811   4.719   1.518  0.2327 -0.8437 -0.2191
   10POPC   CN2  470   5.637   4.864   1.509  0.0175  0.1708  1.0486
   10POPC   CN3  471   5.608   4.638   1.594  0.6115 -0.1464 -0.4139
   10POPC   NTM  472   5.667   4.721   1.488  0.2404  0.3924 -0.2015
   10POPC    CA  473   5.644   4.681   1.348  0.4755  0.3720 -0.2342
   10POPC    CB  474   5.506   4.684   1.283  0.4485  0.0531 -0.1942
   10POPC    OA  475   5.401   4.774   1.323  0.0704 -0.7063  0.5366
   10POPC     P  476   5.258   4.740   1.259 -0.0008  0.3195  0.1489
   10POPC    OB  477   5.288   4.666   1.135  0.4832 -0.3203  0.6439
   10POPC    OC  478   5.153   4.845   1.263 -0.3019  0.0511 -0.5302
   10POPC    OD  479   5.205   4.625   1.359  0.4688  0.1692  0.2235
   10POPC    CC  480   5.131   4.669   1.473  0.2441  0.3782 -0.0005
   10POPC    CD  481   5.202   4.699   1.605 -0.4038  0.2248  0.3896
   10POPC    OE  482   5.175   4.603   1.707  0.1076  0.1125  0.4256
   10POPC   C1A  483   5.254   4.496   1.703 -0.5226 -0.3293 -0.5204
   10POPC    OF  484   5.350   4.477   1.630  0.1109 -0.3026  0.2950
   10POPC   C1B  485   5.214   4.399   1.808 -0.0361 -0.2701 -0.2783
   10POPC   C1C  486   5.328   4.320   1.872 -0.0379 -0.0823 -0.0454
   10POPC   C1D  487   5.433   4.411   1.935  0.1397 -0.2884 -0.0422
   10POPC   C1E  488   5.501   4.364   2.064 -0.1390  0.0393  0.2255
   10POPC   C1F  489   5.590   4.474   2.122  0.0793 -0.2321  0.4079
   10POPC   C1G  490   5.654   4.431   2.254  0.2837 -0.1602  0.3331
   10POPC   C1H  491   5.717   4.549   2.329  0.0622  0.1143  0.0874
   10POPC   C1I  492   5.850   4.532   2.401 -0.0533  0.1377  0.3078
   10POPC   C1J  493   5.877   4.635   2.481 -0.6253  0.3190  0.2724
   10POPC   C1K  494   5.793   4.761   2.495 -0.1591  0.6140  0.4385
   10POPC   C1L  495   5.900   4.870   2.510  0.0478  0.4006  0.5097
   10POPC   C1M  496   5.851   5.015   2.505 -0.0125  0.3783  0.4449
   10POPC   C1N  497   5.741   5.027   2.400 -0.1705 -0.1018  0.5525
   10POPC   C1O  498   5.679   5.165   2.424 -0.7409 -0.2791  0.1278
   10POPC   C1P  499   5.588   5.189   2.303 -0.3137 -0.3272 -0.2046
   10POPC   C1Q  500   5.663   5.249   2.184  0.3177 -0.3407  0.1824
   10POPC   C1R  501   5.567   5.243   2.066  0.4302  0.4641  0.0480
   10POPC    CE  502   5.199   4.850   1.631  0.2421  0.3662 -0.3101
   10POPC    OG  503   5.235   4.901   1.759  0.1689  0.4632 -0.3280
   10POPC   C2A  504   5.354   4.879   1.815  0.0917  0.0658 -0.3193
   10POPC    OH  505   5.448   4.850   1.741  0.1022 -0.4056 -0.1199
   10POPC   C2B  506   5.352   4.910   1.960  0.1499  0.1624 -0.3384
   10POPC   C2C  507   5.410   4.792   2.038 -0.8252 -0.2034 -0.1488
   10POPC   C2D  508   5.400   4.815   2.189  0.3813 -0.5944 -0.0005
   10POPC   C2E  509   5.262   4.765   2.232 -0.0324  0.2325 -0.3628
   10POPC   C2F  510   5.250   4.628   2.299 -0.5054  0.4445 -0.0096
   10POPC   C2G  511   5.102   4.593   2.283 -0.3599 -0.2883  0.2478
   10POPC   C2H  512   5.092   4.447   2.329 -0.0318 -0.2023  0.5966
   10POPC   C2I  513   4.945   4.413   2.354 -0.2560  0.8685  0.7682
   10POPC   C2J  514   4.922   4.275   2.417 -0.4900  0.4551 -0.2167
   10POPC   C2K  515   4.770   4.254   2.419 -0.4512  0.1494 -0.3343
   10POPC   C2L  516   4.717   4.215   2.282 -0.3392 -0.0354 -0.3258
   10POPC   C2M  517   4.566   4.217   2.307 -0.2915  0.7503 -0.0657
   10POPC   C2N  518   4.514   4.181   2.167  0.1053  0.2363 -0.0842
   10POPC   C2O  519   4.491   4.030   2.168 -0.3864  0.3069 -0.1036
   10POPC   C2P  520   4.377   3.986   2.260  0.3144 -0.5682  0.3677
   11POPC   CN1  521   5.549   2.308   1.223 -0.0970 -0.3600  0.9728
   11POPC   CN2  522   5.779   2.312   1.180 -0.5123 -0.1809 -0.0783
   11POPC   CN3  523   5.694   2.406   1.384  0.4354 -0.1779  0.1298
   11POPC   NTM  524   5.670   2.390   1.240 -0.2266 -0.0054  0.2169
   11POPC    CA  525   5.658   2.521   1.174 -0.3874 -0.1605 -0.0658
   11POPC    CB  526   5.551   2.623   1.212 -0.0655  0.1943 -0.1051
   11POPC    OA  527   5.516   2.628   1.350  0.0691  0.4346 -0.0788
   11POPC     P  528   5.407   2.741   1.387 -0.1588  0.2916 -0.3114
   11POPC    OB  529   5.442   2.861   1.308  0.1451  0.7413  0.4949
   11POPC    OC  530   5.410   2.738   1.535 -0.6944 -0.3449 -0.3069
   11POPC    OD  531   5.279   2.656   1.337 -0.6924  0.8555  0.0777
   11POPC    CC  532   5.213   2.575   1.434 -0.0741  0.1529 -0.0765
   11POPC    CD  533   5.247   2.426   1.431  0.1899  0.2127 -0.0318
   11POPC    OE  534   5.138   2.333   1.432  0.1348  0.2773  0.1293
   11POPC   C1A  535   5.172   2.205   1.428 -0.0215  0.2228  0.5123
   11POPC    OF  536   5.279   2.171   1.377 -0.1267  0.0737  0.3888
   11POPC   C1B  537   5.049   2.124   1.437  0.0689  0.0026 -0.1287
   11POPC   C1C  538   5.081   1.980   1.480 -0.3285 -0.0211  0.1019
   11POPC   C1D  539   5.105   1.979   1.631 -0.4422 -0.0291  0.1199
   11POPC   C1E  540   5.112   1.832   1.673  0.3542 -0.0598 -0.0920
   11POPC   C1F  541   5.143   1.826   1.823  0.3174  0.7995 -0.0483
   11POPC   C1G  542   5.096   1.696   1.889  0.3360  0.8055 -0.0230
   11POPC   C1H  543   5.138   1.722   2.034  0.0438  0.2669  0.1584
   11POPC   C1I  544   5.161   1.600   2.124 -0.3737 -0.0949 -0.2169
   11POPC   C1J  545   5.208   1.625   2.246 -0.3246 -0.1385 -0.2270
   11POPC   C1K  546   5.242   1.773   2.266 -0.3904 -0.0965 -0.4274
   11POPC   C1L  547   5.235   1.832   2.406 -0.9205 -0.1755 -0.4157
   11POPC   C1M  548   5.241   1.984   2.388 -0.3842 -0.1023  0.3399
   11POPC   C1N  549   5.277   2.053   2.520 -0.3257 -0.0525  0.2982
   11POPC   C1O  550   5.180   2.163   2.564 -0.0449  0.4949 -0.4365
   11POPC   C1P  551   5.246   2.248   2.672  0.4655  0.2607 -0.5646
   11POPC   C1Q  552   5.155   2.325   2.767  0.0797 -0.4369 -0.3615
   11POPC   C1R  553   5.219   2.436   2.851 -1.2041 -0.0439  0.1256
   11POPC    CE  554   5.343   2.410   1.550  0.4749  0.2899 -0.2495
   11POPC    OG  555   5.309   2.454   1.682 -0.1838  0.1280 -0.3593
   11POPC   C2A  556   5.415   2.501   1.747 -0.0014  0.1671 -0.6793
   11POPC    OH  557   5.529   2.466   1.718  0.2434  0.2489  0.1551
   11POPC   C2B  558   5.380   2.584   1.865  0.3256  0.1279 -0.5530
   11POPC   C2C  559   5.427   2.516   1.994 -0.0383 -0.0308 -0.5031
   11POPC   C2D  560   5.414   2.604   2.118 -0.0298 -0.2255 -0.3641
   11POPC   C2E  561   5.482   2.526   2.231  0.3119  0.0862 -0.3530
   11POPC   C2F  562   5.449   2.595   2.364  0.2357 -0.2372 -0.2038
   11POPC   C2G  563   5.517   2.537   2.488  0.0560 -0.0276 -0.0087
   11POPC   C2H  564   5.662   2.586   2.487  0.0184  0.1071  0.5370
   11POPC   C2I  565   5.659   2.731   2.538 -0.3935  0.3763 -0.2341
   11POPC   C2J  566   5.781   2.811   2.491 -0.5378  0.7265 -0.0149
   11POPC   C2K  567   5.758   2.960   2.516  0.6506  0.9164 -0.0389
   11POPC   C2L  568   5.705   2.996   2.655 -0.0127 -0.1614  0.0039
   11POPC   C2M  569   5.701   3.146   2.688 -0.2967 -0.1985  0.1380
   11POPC   C2N  570   5.591   3.187   2.786 -0.1157 -0.6585  0.5344
   11POPC   C2O  571   5.604   3.335   2.822 -0.4025 -0.5400  0.1559
   11POPC   C2P  572   5.480   3.386   2.895  0.6341  0.6640  1.1195
   12POPC   CN1  573   0.998   2.609   1.568  0.5212 -0.3121 -0.4806
   12POPC   CN2  574   1.066   2.434   1.724  0.0537 -0.2272  0.1399
   12POPC   CN3  575   1.176   2.647   1.724 -0.2764 -0.3649  0.4433
   12POPC   NTM  576   1.110   2.546   1.640  0.1687 -0.3354  0.0553
   12POPC    CA  577   1.195   2.488   1.535 -0.3630 -0.4221 -0.3316
   12POPC    CB  578   1.326   2.422   1.578 -0.1935  0.4953  0.6096
   12POPC    OA  579   1.311   2.301   1.653 -0.3935 -0.1361 -0.4245
   12POPC     P  580   1.447   2.215   1.659 -0.1550  0.2447 -0.2673
   12POPC    OB  581   1.513   2.206   1.527 -0.3502 -0.0327 -0.3487
   12POPC    OC  582   1.415   2.087   1.727  0.2580  0.5766  0.5646
   12POPC    OD  583   1.497   2.324   1.766 -0.5897  0.0827  0.1050
   12POPC    CC  584   1.466   2.282   1.899  0.1738  0.6015  0.4540
   12POPC    CD  585   1.351   2.352   1.971 -0.7902 -0.1524 -0.3290
   12POPC    OE  586   1.400   2.472   2.031  0.0798 -0.3340 -0.6646
   12POPC   C1A  587   1.322   2.576   2.059 -0.0262 -0.5005 -0.3379
   12POPC    OF  588   1.202   2.574   2.031 -0.0776 -0.0644 -0.1532
   12POPC   C1B  589   1.413   2.678   2.115 -0.4600 -0.1296 -0.3032
   12POPC   C1C  590   1.332   2.790   2.182  0.2435  0.3185 -0.1906
   12POPC   C1D  591   1.254   2.725   2.296  0.5022  0.1138 -0.1303
   12POPC   C1E  592   1.342   2.705   2.421 -0.0740 -0.3338  0.2086
   12POPC   C1F  593   1.257   2.627   2.522 -0.2859 -0.2489  0.0968
   12POPC   C1G  594   1.335   2.591   2.648  0.4934  0.7391 -0.0830
   12POPC   C1H  595   1.228   2.527   2.737  0.3753  0.4374 -0.4389
   12POPC   C1I  596   1.277   2.502   2.879 -0.4313 -0.1131 -0.2541
   12POPC   C1J  597   1.182   2.463   2.965 -0.1679 -0.2012 -0.0028
   12POPC   C1K  598   1.039   2.435   2.920  0.0204 -0.5641 -0.3775
   12POPC   C1L  599   0.972   2.341   3.021  0.7983 -0.1227  0.5614
   12POPC   C1M  600   0.829   2.316   2.974  1.0165  0.7233 -0.6154
   12POPC   C1N  601   0.739   2.437   3.004 -0.3542 -0.4274  0.0362
   12POPC   C1O  602   0.593   2.413   2.964 -0.2576 -0.3092 -0.3896
   12POPC   C1P  603   0.521   2.297   3.033 -0.2898 -0.1713 -0.1903
   12POPC   C1Q  604   0.515   2.295   3.185 -0.0951  0.5199 -0.1712
   12POPC   C1R  605   0.461   2.424   3.248 -0.3420  0.3144  0.0417
   12POPC    CE  606   1.283   2.239   2.048 -0.1846  0.0002  0.4438
   12POPC    OG  607   1.199   2.283   2.155 -0.3952  0.5104  0.0737
   12POPC   C2A  608   1.082   2.339   2.126 -0.4010  0.4070 -0.1052
   12POPC    OH  609   1.042   2.341   2.010  0.0998 -0.0104 -0.2864
   12POPC   C2B  610   1.019   2.388   2.251  0.3302 -0.0697  0.4610
   12POPC   C2C  611   0.941   2.288   2.336 -0.1496  0.3848  0.5600
   12POPC   C2D  612   0.933   2.353   2.474  0.1688  0.7173  0.4233
   12POPC   C2E  613   0.875   2.243   2.564 -0.0526  0.6131  0.1552
   12POPC   C2F  614   0.961   2.121   2.598 -0.0150  0.5467 -0.1663
   12POPC   C2G  615   0.876   2.024   2.681  0.1263  0.7268  0.1935
   12POPC   C2H  616   0.966   1.908   2.724 -0.8937 -0.2451 -0.2512
   12POPC   C2I  617   0.914   1.852   2.857 -0.0746  0.1154  0.2266
   12POPC   C2J  618   0.972   1.712   2.878 -0.1781  0.1677  0.8706
   12POPC   C2K  619   1.121   1.710   2.913 -0.0676  0.0394  0.4007
   12POPC   C2L  620   1.173   1.571   2.950 -0.2158 -0.0630  0.2271
   12POPC   C2M  621   1.320   1.572   2.995 -0.1477 -0.0676  0.0070
   12POPC   C2N  622   1.392   1.437   3.002  0.2204  0.1204 -0.1629
   12POPC   C2O  623   1.526   1.454   3.074  0.3601 -0.1749 -0.3530
   12POPC   C2P  624   1.576   1.311   3.095 -0.2996 -0.3490  0.0650
   13POPC   CN1  625   3.173   1.815   1.155 -0.3069 -0.4462  0.3117
   13POPC   CN2  626   3.094   1.877   1.370  0.8102 -0.5907 -0.1047
   13POPC   CN3  627   2.948   1.765   1.235 -0.1775  0.1632  0.0035
   13POPC   NTM  628   3.056   1.864   1.228 -0.1905  0.1827  0.0860
   13POPC    CA  629   3.002   1.987   1.168  0.0436 -0.0042 -0.5089
   13POPC    CB  630   3.069   2.124   1.183 -0.3771  0.1754 -0.2677
   13POPC    OA  631   3.211   2.125   1.193 -0.4142 -0.4494  0.3461
   13POPC     P  632   3.279   2.230   1.295  0.0652 -0.1310 -0.2953
   13POPC    OB  633   3.195   2.346   1.258  0.0468 -0.0384  0.0426
   13POPC    OC  634   3.424   2.235   1.264  0.1498 -0.1985  0.0896
   13POPC    OD  635   3.236   2.158   1.432  0.2211  0.6237  0.1504
   13POPC    CC  636   3.314   2.205   1.543  0.6091 -0.6187  0.4253
   13POPC    CD  637   3.331   2.099   1.652 -0.1617 -1.0658  0.1218
   13POPC    OE  638   3.382   2.147   1.777 -0.4253  0.0388 -0.1796
   13POPC   C1A  639   3.366   2.079   1.890  0.0564 -0.1191 -0.2057
   13POPC    OF  640   3.274   1.998   1.903  0.1891 -0.2089  0.1881
   13POPC   C1B  641   3.447   2.137   1.999 -0.0059 -0.0206 -0.2116
   13POPC   C1C  642   3.360   2.205   2.104  0.1587  0.2989 -0.2792
   13POPC   C1D  643   3.456   2.252   2.214  0.0905 -0.0940 -0.0494
   13POPC   C1E  644   3.402   2.339   2.327  0.2632 -0.0747  0.0187
   13POPC   C1F  645   3.291   2.270   2.406  0.0506  0.1213 -0.1049
   13POPC   C1G  646   3.169   2.353   2.447  0.2578  0.4381 -0.1287
   13POPC   C1H  647   3.144   2.371   2.597  0.0490  0.1755 -0.1319
   13POPC   C1I  648   3.247   2.467   2.656 -0.2322  0.5998 -0.3253
   13POPC   C1J  649   3.210   2.541   2.761 -0.0744 -0.2013  0.3109
   13POPC   C1K  650   3.062   2.532   2.797 -0.2264  0.4700 -0.1102
   13POPC   C1L  651   3.015   2.644   2.890 -0.1455  0.2484  0.2045
   13POPC   C1M  652   2.917   2.583   2.990  0.3296 -0.5908  0.1647
   13POPC   C1N  653   2.866   2.672   3.103 -0.0599 -0.1616 -0.3448
   13POPC   C1O  654   2.723   2.642   3.148 -0.0182 -0.2471 -0.2685
   13POPC   C1P  655   2.681   2.728   3.267 -0.4856 -0.6207 -0.1580
   13POPC   C1Q  656   2.773   2.714   3.388 -0.3826 -0.2101 -0.1843
   13POPC   C1R  657   2.738   2.818   3.495  0.3376  0.2318 -0.3726
   13POPC    CE  658   3.420   2.000   1.576  0.4273 -0.1476 -0.4218
   13POPC    OG  659   3.558   2.033   1.559  0.5732 -0.5342 -0.0408
   13POPC   C2A  660   3.646   2.004   1.654  0.4102  0.6049  0.4811
   13POPC    OH  661   3.618   1.947   1.759  0.4504 -0.1967  0.0681
   13POPC   C2B  662   3.783   2.050   1.622  0.5639 -0.2805 -0.1991
   13POPC   C2C  663   3.805   2.183   1.696 -0.3622  0.0599 -0.5162
   13POPC   C2D  664   3.921   2.174   1.796 -0.5379  0.3513 -0.2878
   13POPC   C2E  665   3.893   2.271   1.911  0.2617  0.6858 -0.3727
   13POPC   C2F  666   4.009   2.263   2.011  0.0672  0.1368 -0.1863
   13POPC   C2G  667   4.001   2.377   2.113  0.4942  0.0519 -0.0586
   13POPC   C2H  668   4.124   2.391   2.204  0.4904 -0.0075 -0.0446
   13POPC   C2I  669   4.131   2.503   2.307  0.2959 -0.2725  0.2586
   13POPC   C2J  670   4.015   2.477   2.403 -0.2220 -0.4197 -0.4012
   13POPC   C2K  671   4.052   2.372   2.508 -0.2500 -0.3161 -0.2884
   13POPC   C2L  672   3.949   2.368   2.621 -0.0035  0.1252 -0.0462
   13POPC   C2M  673   3.814   2.322   2.565 -0.0236  0.3095 -0.1495
   13POPC   C2N  674   3.711   2.296   2.675  0.3201 -0.2605  0.0402
   13POPC   C2O  675   3.723   2.166   2.756  0.0760 -0.4100 -0.1605
   13POPC   C2P  676   3.662   2.199   2.893 -0.4049 -0.4398 -0.3651
   14POPC   CN1  677   5.025   0.966   0.830 -0.2791  0.2335 -0.4462
   14POPC   CN2  678   5.044   0.760   0.950 -0.3879  0.2074  0.5384
   14POPC   CN3  679   5.193   0.801   0.772 -0.2369  0.2137  0.4132
   14POPC   NTM  680   5.054   0.823   0.817 -0.2092  0.1556  0.5271
   14POPC    CA  681   4.971   0.738   0.731  0.4591  0.2228 -0.1987
   14POPC    CB  682   4.825   0.772   0.699  0.2803 -0.0915  0.2707
   14POPC    OA  683   4.740   0.782   0.814 -0.1713  0.4938 -0.1056
   14POPC     P  684   4.585   0.788   0.770 -0.1554  0.1028 -0.2162
   14POPC    OB  685   4.564   0.748   0.629 -0.2672  0.7873 -0.3976
   14POPC    OC  686   4.537   0.914   0.830 -0.1019 -0.0414  0.1340
   14POPC    OD  687   4.524   0.679   0.873  0.2915 -0.0170 -0.0740
   14POPC    CC  688   4.591   0.553   0.877  0.3890  0.0525  0.6231
   14POPC    CD  689   4.540   0.465   0.991 -0.1048  0.1288  0.4648
   14POPC    OE  690   4.650   0.390   1.042  0.5626  0.3379 -0.6495
   14POPC   C1A  691   4.721   0.427   1.148  0.2440 -0.1347 -0.2665
   14POPC    OF  692   4.699   0.540   1.194  0.4092 -0.1911 -0.0473
   14POPC   C1B  693   4.829   0.336   1.192 -0.2301 -0.5707  0.0060
   14POPC   C1C  694   4.960   0.413   1.213 -0.5202 -0.0669 -0.0169
   14POPC   C1D  695   4.973   0.491   1.344 -0.7346  0.1302 -0.1120
   14POPC   C1E  696   4.983   0.642   1.320 -0.7763  0.1425 -0.0532
   14POPC   C1F  697   4.983   0.722   1.450 -0.4826  0.2882 -0.1402
   14POPC   C1G  698   4.866   0.702   1.548 -0.5930  0.1689 -0.2956
   14POPC   C1H  699   4.879   0.790   1.672 -0.3267 -0.2052 -0.0548
   14POPC   C1I  700   4.764   0.783   1.773 -0.4796  1.0772 -0.1209
   14POPC   C1J  701   4.798   0.788   1.902  0.5210  0.3344 -0.3476
   14POPC   C1K  702   4.949   0.800   1.926  0.5795 -0.2660 -0.4015
   14POPC   C1L  703   4.990   0.744   2.063  0.2641 -0.0443 -0.2137
   14POPC   C1M  704   4.943   0.833   2.178  0.0343  0.1427 -0.4518
   14POPC   C1N  705   5.018   0.793   2.304 -0.3897 -0.0914 -0.2716
   14POPC   C1O  706   4.987   0.655   2.362  0.2510 -0.2750 -0.3540
   14POPC   C1P  707   5.087   0.613   2.470 -0.0705 -0.2882 -0.0595
   14POPC   C1Q  708   5.080   0.460   2.482  0.1098 -0.2808  0.1425
   14POPC   C1R  709   5.204   0.393   2.541  0.5374  0.4375  0.0706
   14POPC    CE  710   4.412   0.392   0.950  0.1811 -0.2034  0.1691
   14POPC    OG  711   4.334   0.339   1.057 -0.4377  0.3305 -0.0169
   14POPC   C2A  712   4.270   0.428   1.133 -0.1420  0.2102  0.3729
   14POPC    OH  713   4.252   0.541   1.088  0.0546  0.1035  0.0200
   14POPC   C2B  714   4.221   0.380   1.264 -0.0498 -0.5696  0.1298
   14POPC   C2C  715   4.316   0.421   1.377 -0.1572 -0.0551  0.0354
   14POPC   C2D  716   4.417   0.311   1.408  0.0251  0.0864 -0.0582
   14POPC   C2E  717   4.520   0.382   1.496 -0.1711 -0.0189  0.2541
   14POPC   C2F  718   4.622   0.277   1.541 -0.3339 -0.1300  0.3672
   14POPC   C2G  719   4.751   0.338   1.597 -0.3154 -0.0401  0.2252
   14POPC   C2H  720   4.734   0.392   1.739  0.6784 -0.4083  0.4904
   14POPC   C2I  721   4.739   0.280   1.843  0.7798 -0.4745  0.4141
   14POPC   C2J  722   4.748   0.355   1.976 -1.0757  0.6298 -0.0403
   14POPC   C2K  723   4.711   0.284   2.107  0.4482 -0.1793 -0.0255
   14POPC   C2L  724   4.705   0.389   2.218 -0.4503 -0.3086  0.0495
   14POPC   C2M  725   4.622   0.345   2.339 -0.6250  0.1268  0.0894
   14POPC   C2N  726   4.633   0.448   2.452 -0.2463  0.6401 -0.4095
   14POPC   C2O  727   4.565   0.395   2.578  0.8945 -0.3270 -0.1910
   14POPC   C2P  728   4.567   0.500   2.689 -0.0963 -0.3820 -0.1150
   15POPC   CN1  729   0.710   4.015   1.804 -0.1608  0.4165  0.5574
   15POPC   CN2  730   0.618   4.213   1.737 -0.2846  0.1361 -0.5254
   15POPC   CN3  731   0.499   4.097   1.894 -0.4387 -0.1235 -0.0513
   15POPC   NTM  732   0.580   4.075   1.773 -0.1261  0.2508  0.0872
   15POPC    CA  733   0.521   4.005   1.658 -0.4065  0.0880  0.3275
   15POPC    CB  734   0.377   4.028   1.612 -0.1380  0.1428 -0.4984
   15POPC    OA  735   0.278   4.009   1.712  0.3030  0.1983 -0.0494
   15POPC     P  736   0.130   4.035   1.653  0.2839 -0.1248 -0.1470
   15POPC    OB  737   0.016   4.018   1.746 -0.1405 -0.0966 -0.6589
   15POPC    OC  738   0.125   3.991   1.512 -0.2739  0.3296 -0.2728
   15POPC    OD  739   0.144   4.192   1.618 -0.4960  0.0848  0.4567
   15POPC    CC  740   0.122   4.281   1.728 -0.4089  0.7663 -0.0714
   15POPC    CD  741   0.228   4.387   1.757  0.2630  0.0407  0.1683
   15POPC    OE  742   0.211   4.442   1.888 -0.2941  0.1558  0.0486
   15POPC   C1A  743   0.319   4.448   1.965  0.1149  0.8391 -0.5699
   15POPC    OF  744   0.416   4.377   1.937  0.0250 -0.0333  1.2015
   15POPC   C1B  745   0.293   4.541   2.076  0.3887  0.0880  0.1343
   15POPC   C1C  746   0.405   4.550   2.180  0.1911 -0.0744  0.3646
   15POPC   C1D  747   0.352   4.621   2.304 -0.3664  0.0731  0.0460
   15POPC   C1E  748   0.464   4.623   2.409 -0.2117  0.2430 -0.1214
   15POPC   C1F  749   0.428   4.679   2.546  0.0619  0.6541 -0.2163
   15POPC   C1G  750   0.544   4.688   2.645  0.1077  0.2556 -0.2346
   15POPC   C1H  751   0.649   4.789   2.599  0.1572  0.3511  0.0857
   15POPC   C1I  752   0.773   4.795   2.688  0.3603  0.2409 -0.1906
   15POPC   C1J  753   0.798   4.892   2.775 -0.1355  0.1242  0.0801
   15POPC   C1K  754   0.696   5.004   2.796 -0.3622 -0.0795  0.0686
   15POPC   C1L  755   0.690   5.042   2.944  0.0896 -0.0673  0.0831
   15POPC   C1M  756   0.555   5.107   2.975  0.2339  0.2479  0.0613
   15POPC   C1N  757   0.521   5.243   2.914 -0.1496 -0.0389 -0.3758
   15POPC   C1O  758   0.380   5.284   2.957  0.2544  0.1319  0.8165
   15POPC   C1P  759   0.360   5.433   2.927 -0.1293 -0.0778  0.0329
   15POPC   C1Q  760   0.223   5.466   2.986 -0.0662 -0.0342  0.1541
   15POPC   C1R  761   0.195   5.616   3.004 -0.0180  0.0083 -0.1174
   15POPC    CE  762   0.219   4.479   1.635 -0.2656 -0.4896 -0.1985
   15POPC    OG  763   0.300   4.597   1.642 -0.6130 -0.2728  0.2319
   15POPC   C2A  764   0.271   4.703   1.566  0.3243  0.1186  0.4119
   15POPC    OH  765   0.180   4.691   1.485  0.3327  0.0229  0.4167
   15POPC   C2B  766   0.354   4.823   1.596  0.2316  0.3094 -0.0832
   15POPC   C2C  767   0.276   4.923   1.682  1.0271  0.5658  0.3481
   15POPC   C2D  768   0.256   4.873   1.825  0.3397 -0.1979 -0.0035
   15POPC   C2E  769   0.392   4.897   1.891  0.3928  0.3716 -0.3111
   15POPC   C2F  770   0.380   4.919   2.042 -0.3249  0.4944 -0.3801
   15POPC   C2G  771   0.511   4.990   2.076 -0.0312 -0.1009 -0.2408
   15POPC   C2H  772   0.499   5.019   2.226 -0.2597  0.2491 -0.3251
   15POPC   C2I  773   0.424   5.149   2.256  0.3209  0.4546  0.2605
   15POPC   C2J  774   0.397   5.161   2.406 -0.5875 -0.1606  0.1516
   15POPC   C2K  775   0.305   5.049   2.456 -0.3897 -0.2213  0.3820
   15POPC   C2L  776   0.285   5.049   2.607  0.3220  0.0111  0.4793
   15POPC   C2M  777   0.184   5.156   2.649  0.3698  0.1187  0.3225
   15POPC   C2N  778   0.035   5.134   2.622  0.3912  0.0075  0.2924
   15POPC   C2O  779   6.277   5.250   2.696  0.3695  0.0169  0.2578
   15POPC   C2P  780   6.130   5.211   2.680  0.5211 -0.5553  0.2484
   16POPC   CN1  781   5.506   3.983   1.861 -0.1008  0.0362 -0.2691
   16POPC   CN2  782   5.317   3.822   1.891  0.2032  0.4515  0.8538
   16POPC   CN3  783   5.490   3.789   1.738 -0.4015 -0.4131 -0.5857
   16POPC   NTM  784   5.407   3.893   1.800  0.0933 -0.4028  0.0628
   16POPC    CA  785   5.333   3.967   1.697 -0.2062 -0.5101  0.1994
   16POPC    CB  786   5.221   3.902   1.615 -0.2370  0.6129 -0.6572
   16POPC    OA  787   5.257   3.787   1.538 -0.5083 -0.0949  0.2606
   16POPC     P  788   5.148   3.738   1.429 -0.3561  0.0368  0.0474
   16POPC    OB  789   5.223   3.647   1.339 -0.1196 -0.0194  0.2973
   16POPC    OC  790   5.083   3.864   1.388  0.1102  0.3524  0.2705
   16POPC    OD  791   5.061   3.655   1.536  0.5279 -0.5214  0.3508
   16POPC    CC  792   5.102   3.521   1.564  0.7475 -0.3969  0.6213
   16POPC    CD  793   5.148   3.502   1.709 -0.0526  0.1203  0.9525
   16POPC    OE  794   5.237   3.390   1.725 -0.0475 -0.0280 -0.0417
   16POPC   C1A  795   5.345   3.418   1.797 -0.1415  0.1771  0.0213
   16POPC    OF  796   5.358   3.527   1.853 -0.4762  0.3038 -0.1473
   16POPC   C1B  797   5.448   3.312   1.803 -0.1570  0.1761  0.2874
   16POPC   C1C  798   5.583   3.385   1.802 -0.2729  0.3870 -0.1302
   16POPC   C1D  799   5.701   3.292   1.828 -0.4957  0.2308  0.3323
   16POPC   C1E  800   5.839   3.355   1.855 -0.6822  0.7456  0.0920
   16POPC   C1F  801   5.864   3.414   1.994  0.1770 -0.3572  0.4175
   16POPC   C1G  802   5.909   3.307   2.094  0.1476 -0.2219  0.5751
   16POPC   C1H  803   5.930   3.384   2.224 -0.8446  0.3637  0.4008
   16POPC   C1I  804   5.992   3.300   2.335  0.2481  0.4207 -0.1599
   16POPC   C1J  805   6.045   3.332   2.453  0.7811 -0.2176 -0.2160
   16POPC   C1K  806   6.059   3.478   2.496  0.1155 -0.2980  0.2771
   16POPC   C1L  807   5.944   3.536   2.579  0.1084  0.2974 -0.1425
   16POPC   C1M  808   5.962   3.516   2.729 -0.4496  0.5177 -0.0428
   16POPC   C1N  809   6.077   3.598   2.788  0.0983 -0.1597 -0.1643
   16POPC   C1O  810   6.099   3.550   2.932 -0.3664 -0.2182 -0.1121
   16POPC   C1P  811   5.974   3.578   3.017 -0.0623  0.2699  0.1819
   16POPC   C1Q  812   5.979   3.549   3.167 -0.0352  0.4417  0.2141
   16POPC   C1R  813   5.834   3.559   3.215 -0.0808 -0.3885  0.2527
   16POPC    CE  814   5.019   3.499   1.791 -0.2245 -0.0131  0.6781
   16POPC    OG  815   5.025   3.459   1.928  0.1331 -0.1853  0.6128
   16POPC   C2A  816   5.074   3.552   2.009  0.1275 -0.0720  0.4874
   16POPC    OH  817   5.063   3.673   1.986 -0.2638 -0.2633 -0.3398
   16POPC   C2B  818   5.114   3.496   2.140  0.0942 -0.1296  0.4729
   16POPC   C2C  819   5.262   3.456   2.139  0.0929 -0.1219 -0.0722
   16POPC   C2D  820   5.358   3.571   2.170  0.2999 -0.2366 -0.2822
   16POPC   C2E  821   5.506   3.533   2.177  0.1396 -0.7872  0.2602
   16POPC   C2F  822   5.573   3.648   2.252  0.2375 -0.1488 -0.7932
   16POPC   C2G  823   5.567   3.613   2.400 -0.4350  0.0954 -0.7553
   16POPC   C2H  824   5.606   3.737   2.480 -0.5085 -0.1596 -0.3172
   16POPC   C2I  825   5.601   3.726   2.632 -0.7534  0.7708 -0.2475
   16POPC   C2J  826   5.659   3.842   2.713 -0.0299  0.2678 -0.0301
   16POPC   C2K  827   5.635   3.816   2.862 -0.0290  0.1758 -0.0461
   16POPC   C2L  828   5.694   3.930   2.945  0.0580  0.4278 -0.4513
   16POPC   C2M  829   5.616   4.061   2.930 -0.1824  0.2719 -0.5710
   16POPC   C2N  830   5.662   4.157   3.040 -0.4390  0.2098 -0.4081
   16POPC   C2O  831   5.673   4.297   2.979  0.2421  0.1828 -0.3589
   16POPC   C2P  832   5.690   4.409   3.081  0.0961  0.4310 -0.6038
   17POPC   CN1  833   1.936   2.087   0.900  0.1369 -0.3272  0.1259
   17POPC   CN2  834   2.023   1.992   1.093  0.5078 -0.2331 -0.4810
   17POPC   CN3  835   2.177   2.087   0.940  0.2168  0.3555  0.0049
   17POPC   NTM  836   2.052   2.012   0.951  0.4946 -0.1845 -0.4771
   17POPC    CA  837   2.058   1.875   0.896  0.4752 -0.2989 -0.1951
   17POPC    CB  838   2.185   1.792   0.913  0.4992 -0.2334 -0.0554
   17POPC    OA  839   2.250   1.781   1.040 -0.6709 -0.1439  0.5638
   17POPC     P  840   2.312   1.634   1.066  0.0636  0.0403 -0.1114
   17POPC    OB  841   2.408   1.650   1.178 -0.3582  0.1717  0.2364
   17POPC    OC  842   2.330   1.548   0.947 -0.0989 -0.1488 -0.0006
   17POPC    OD  843   2.171   1.585   1.128  0.0017  0.2346 -0.0959
   17POPC    CC  844   2.166   1.628   1.264 -0.0038 -0.2435  0.0559
   17POPC    CD  845   2.027   1.673   1.310  0.2020  0.1538  0.2939
   17POPC    OE  846   2.034   1.713   1.447 -0.7314  0.1749  0.3382
   17POPC   C1A  847   2.086   1.833   1.471  0.5557 -0.2632 -0.2122
   17POPC    OF  848   2.110   1.913   1.381 -0.1707  0.1160 -0.0751
   17POPC   C1B  849   2.091   1.862   1.616  0.5719  0.1296 -0.2920
   17POPC   C1C  850   2.222   1.825   1.686  0.2286 -0.2991  0.1215
   17POPC   C1D  851   2.224   1.880   1.829  0.1897  0.4097 -0.1481
   17POPC   C1E  852   2.366   1.881   1.886 -0.1390  0.1799  0.6891
   17POPC   C1F  853   2.367   1.896   2.038 -0.2455  0.4074  0.6674
   17POPC   C1G  854   2.506   1.874   2.098  0.2089  0.3286 -0.3923
   17POPC   C1H  855   2.510   1.897   2.249 -0.7799  0.0734 -0.3198
   17POPC   C1I  856   2.639   1.842   2.309 -0.7404  0.4294 -0.0726
   17POPC   C1J  857   2.717   1.922   2.381  0.5194 -0.6141 -0.2369
   17POPC   C1K  858   2.674   2.066   2.408 -0.1515 -0.9131  0.3180
   17POPC   C1L  859   2.735   2.107   2.542 -0.0257 -0.5696  0.1564
   17POPC   C1M  860   2.660   2.237   2.573  0.0365 -0.4592 -0.1544
   17POPC   C1N  861   2.718   2.295   2.702  0.0354  0.4146 -0.5424
   17POPC   C1O  862   2.669   2.436   2.737  0.3448  0.2520  0.5693
   17POPC   C1P  863   2.700   2.537   2.627  0.2554 -0.3220  0.0082
   17POPC   C1Q  864   2.636   2.668   2.673 -0.4309 -0.6769  0.0712
   17POPC   C1R  865   2.620   2.753   2.547  0.9987  0.3715  0.5745
   17POPC    CE  866   1.917   1.573   1.276  0.6494 -0.3845  0.4111
   17POPC    OG  867   1.932   1.449   1.345  0.8527 -0.2151  0.6708
   17POPC   C2A  868   1.873   1.435   1.463 -0.0373  0.2887  0.2890
   17POPC    OH  869   1.757   1.473   1.483 -0.2256 -0.2306  0.1973
   17POPC   C2B  870   1.934   1.326   1.542  0.5788  0.4664  0.0611
   17POPC   C2C  871   1.921   1.343   1.694 -0.4986 -0.2052  0.0535
   17POPC   C2D  872   1.990   1.464   1.757 -0.4592 -0.3172  0.2268
   17POPC   C2E  873   1.941   1.464   1.902 -0.0910 -0.1356  0.3517
   17POPC   C2F  874   1.979   1.585   1.988 -0.0940  0.2826 -0.2256
   17POPC   C2G  875   1.943   1.580   2.137  0.1673 -0.3936 -0.1826
   17POPC   C2H  876   2.025   1.466   2.198  0.3275  0.0906  0.5164
   17POPC   C2I  877   1.955   1.432   2.330 -0.2048 -0.1687  0.1732
   17POPC   C2J  878   1.998   1.538   2.432  0.1580 -0.4082  0.2707
   17POPC   C2K  879   1.956   1.480   2.567 -0.0579 -0.6033  0.1211
   17POPC   C2L  880   1.985   1.582   2.678  0.1128 -0.4480 -0.0660
   17POPC   C2M  881   1.986   1.536   2.824  0.3722  0.0331  0.0861
   17POPC   C2N  882   2.078   1.421   2.867  0.2670  0.1025  0.5011
   17POPC   C2O  883   2.076   1.393   3.017  0.5663 -0.7653  0.3476
   17POPC   C2P  884   1.934   1.355   3.060  0.1703 -0.1423 -0.3932
   18POPC   CN1  885   1.336   1.793   1.375 -0.0065  0.1265  0.1708
   18POPC   CN2  886   1.522   1.672   1.477  0.3323  0.0671 -0.0430
   18POPC   CN3  887   1.359   1.792   1.609 -0.3498  1.1905 -0.0653
   18POPC   NTM  888   1.436   1.791   1.483  0.0162 -0.1701  0.1453
   18POPC    CA  889   1.530   1.904   1.477  0.3180 -0.4382 -0.2137
   18POPC    CB  890   1.568   1.957   1.339 -0.5275  0.4201 -0.1317
   18POPC    OA  891   1.637   1.851   1.272 -0.6846  0.3016 -0.1057
   18POPC     P  892   1.657   1.872   1.114  0.1060 -0.3876 -0.1068
   18POPC    OB  893   1.771   1.786   1.074  0.4862 -0.0589  0.2632
   18POPC    OC  894   1.647   2.015   1.077 -0.4943 -0.2536  0.5424
   18POPC    OD  895   1.517   1.799   1.083 -0.0461 -0.1616  0.0470
   18POPC    CC  896   1.529   1.658   1.065 -0.0122 -0.1745  0.1749
   18POPC    CD  897   1.390   1.594   1.061  0.0390 -0.2490 -0.4143
   18POPC    OE  898   1.397   1.459   1.106  0.2478 -0.0175  0.2555
   18POPC   C1A  899   1.305   1.428   1.197  0.1103  0.0775  0.1470
   18POPC    OF  900   1.228   1.510   1.247  0.0987  0.5236 -0.5850
   18POPC   C1B  901   1.302   1.284   1.230 -0.5649  0.1235  0.3137
   18POPC   C1C  902   1.290   1.252   1.379  0.2791 -0.2311  0.3133
   18POPC   C1D  903   1.398   1.307   1.472  0.5500 -0.3961  0.0951
   18POPC   C1E  904   1.388   1.240   1.608 -0.6315  0.2780  0.3505
   18POPC   C1F  905   1.488   1.268   1.721 -0.0456  0.1218 -0.1244
   18POPC   C1G  906   1.467   1.410   1.775 -0.1420  0.0627 -0.0055
   18POPC   C1H  907   1.566   1.430   1.890  0.1101 -0.1127 -0.1890
   18POPC   C1I  908   1.527   1.571   1.933  0.2639 -0.2028  0.2531
   18POPC   C1J  909   1.543   1.612   2.059 -0.1120 -0.1088  0.2708
   18POPC   C1K  910   1.577   1.512   2.170  0.3575 -0.1237  0.1140
   18POPC   C1L  911   1.538   1.560   2.309 -0.0972  0.0440 -0.0710
   18POPC   C1M  912   1.589   1.696   2.358 -0.3226  0.1669 -0.1749
   18POPC   C1N  913   1.595   1.691   2.510  0.8142  0.0014 -0.2180
   18POPC   C1O  914   1.671   1.812   2.566  0.6561  0.1532 -0.3312
   18POPC   C1P  915   1.692   1.813   2.718  0.3761  0.2076 -0.2926
   18POPC   C1Q  916   1.737   1.950   2.770 -0.2200  0.1247  0.4591
   18POPC   C1R  917   1.759   1.945   2.921  0.2293  0.5231  0.4080
   18POPC    CE  918   1.342   1.607   0.916 -0.4107 -0.3409 -0.2741
   18POPC    OG  919   1.411   1.522   0.824 -0.1348 -0.0885 -0.3011
   18POPC   C2A  920   1.353   1.408   0.785  0.1357 -0.4861  0.4512
   18POPC    OH  921   1.232   1.388   0.788  0.0923 -0.1498  1.3054
   18POPC   C2B  922   1.455   1.318   0.728  0.7140 -0.1853  0.9888
   18POPC   C2C  923   1.416   1.173   0.759  0.1266 -0.1515  0.4368
   18POPC   C2D  924   1.522   1.074   0.710 -0.3210 -0.5935  0.3625
   18POPC   C2E  925   1.497   0.929   0.754  0.1631 -0.7130  0.2445
   18POPC   C2F  926   1.590   0.838   0.673  0.7080 -0.1946  0.2726
   18POPC   C2G  927   1.573   0.691   0.712 -0.1304 -0.1323  0.1709
   18POPC   C2H  928   1.644   0.670   0.846 -0.0027  0.0243  0.1282
   18POPC   C2I  929   1.620   0.521   0.874 -0.0326 -0.1229 -0.6443
   18POPC   C2J  930   1.632   0.483   1.022 -0.0819 -0.1025 -0.6348
   18POPC   C2K  931   1.569   0.344   1.028  0.0207 -0.1408 -0.4216
   18POPC   C2L  932   1.517   0.308   1.167 -0.3957  0.4773 -0.4125
   18POPC   C2M  933   1.604   0.338   1.290 -0.1619  0.1648 -0.5014
   18POPC   C2N  934   1.539   0.306   1.425  0.5509  0.3842 -0.1026
   18POPC   C2O  935   1.609   0.373   1.543 -0.1944  0.1198  0.4933
   18POPC   C2P  936   1.548   0.333   1.678  0.1281  0.3698  0.7153
   19POPC   CN1  937   3.840   4.831   1.327 -0.2595  0.0274  0.1413
   19POPC   CN2  938   4.028   4.819   1.474 -0.5059  0.2680  0.3950
   19POPC   CN3  939   3.939   5.034   1.420 -0.1541  0.0554 -0.1741
   19POPC   NTM  940   3.964   4.899   1.368 -0.1863 -0.0121 -0.0143
   19POPC    CA  941   4.054   4.918   1.253 -0.0296 -0.1477  0.0849
   19POPC    CB  942   4.087   4.802   1.160  0.2783 -0.1607  0.2092
   19POPC    OA  943   4.129   4.678   1.219 -0.5139 -0.4481  0.1842
   19POPC     P  944   4.233   4.590   1.132  0.0821  0.3099  0.1171
   19POPC    OB  945   4.338   4.687   1.093  0.2029  0.0133 -0.2992
   19POPC    OC  946   4.136   4.511   1.053 -0.3185  0.4500  0.4628
   19POPC    OD  947   4.266   4.503   1.263 -0.8551 -0.0046  0.1559
   19POPC    CC  948   4.350   4.581   1.348 -0.1882 -0.4253 -0.1076
   19POPC    CD  949   4.347   4.519   1.488 -0.1268 -0.1585  0.0130
   19POPC    OE  950   4.422   4.587   1.589 -0.5332 -0.0693  0.2598
   19POPC   C1A  951   4.354   4.667   1.670 -0.1992 -0.0347  0.5097
   19POPC    OF  952   4.233   4.689   1.662 -0.1902 -0.0057  0.4473
   19POPC   C1B  953   4.435   4.738   1.772  0.1836  0.3288 -0.0380
   19POPC   C1C  954   4.417   4.889   1.785  0.3512  0.3157  0.3687
   19POPC   C1D  955   4.512   4.963   1.879 -0.1292  0.0394  1.0761
   19POPC   C1E  956   4.465   5.107   1.906 -0.2591  0.1552  0.2423
   19POPC   C1F  957   4.563   5.193   1.987 -0.1914  0.2648  0.0462
   19POPC   C1G  958   4.508   5.334   2.011  0.0669  0.2554  0.6935
   19POPC   C1H  959   4.621   5.426   2.058  0.0865  0.2616  0.6322
   19POPC   C1I  960   4.561   5.566   2.067  0.2163  0.3733 -0.1508
   19POPC   C1J  961   4.544   5.631   2.182 -0.2702 -0.1214  0.0603
   19POPC   C1K  962   4.600   5.568   2.309 -0.3068  0.3155  0.2921
   19POPC   C1L  963   4.568   5.657   2.430 -0.2367  0.1081  0.4626
   19POPC   C1M  964   4.589   5.574   2.557  0.0658 -0.1261  0.2603
   19POPC   C1N  965   4.562   5.637   2.694  0.0607  0.5043 -0.0271
   19POPC   C1O  966   4.638   5.768   2.717  0.8967  0.0190  0.0148
   19POPC   C1P  967   4.641   5.815   2.863  0.2499  0.2247 -0.0357
   19POPC   C1Q  968   4.719   5.946   2.876 -0.1777  0.4805 -0.0151
   19POPC   C1R  969   4.866   5.922   2.840 -0.4086 -0.4583 -0.3653
   19POPC    CE  970   4.377   4.370   1.470 -0.4492 -0.1976 -0.2097
   19POPC    OG  971   4.366   4.269   1.571 -0.1438  0.2293  0.2612
   19POPC   C2A  972   4.244   4.233   1.610 -0.0378 -0.1353  0.2632
   19POPC    OH  973   4.159   4.239   1.521 -0.3426  0.0406  0.5672
   19POPC   C2B  974   4.243   4.141   1.726 -1.1066 -0.3533  0.0895
   19POPC   C2C  975   4.221   4.216   1.858 -0.2019 -0.0052  0.0478
   19POPC   C2D  976   4.118   4.162   1.958  0.0929 -0.2420  0.2292
   19POPC   C2E  977   4.086   4.268   2.063  0.2212  0.0791 -0.0510
   19POPC   C2F  978   3.968   4.208   2.141  0.0788 -0.1607 -0.4457
   19POPC   C2G  979   4.012   4.105   2.245  0.2373  0.1701 -0.1796
   19POPC   C2H  980   3.896   4.056   2.333  0.4569 -0.0632 -0.0162
   19POPC   C2I  981   3.961   3.967   2.439  0.6696  0.5521  0.3821
   19POPC   C2J  982   3.844   3.916   2.524  0.6829  0.0007  0.0754
   19POPC   C2K  983   3.885   3.800   2.616  0.3211  0.0415  0.2892
   19POPC   C2L  984   3.758   3.721   2.649  0.2240  0.1090  0.0849
   19POPC   C2M  985   3.804   3.628   2.762  0.0114 -0.0533  0.0371
   19POPC   C2N  986   3.877   3.515   2.690 -0.1281 -0.1276  0.0099
   19POPC   C2O  987   3.938   3.413   2.787  0.7329  0.7117  0.3749
   19POPC   C2P  988   4.091   3.417   2.790  0.7755 -0.5472  0.2746
   20POPC   CN1  989   3.581   0.011   1.178 -0.1021 -0.6374  0.0727
   20POPC   CN2  990   3.496   6.193   1.329 -0.7107  0.4232  0.1422
   20POPC   CN3  991   3.705   6.154   1.212 -0.0222 -0.0228 -0.7802
   20POPC   NTM  992   3.568   6.207   1.202 -0.3305 -0.5907  0.2344
   20POPC    CA  993   3.492   6.152   1.089 -0.5294 -0.1214  0.1401
   20POPC    CB  994   3.466   6.002   1.082 -0.0082 -0.2259  0.4685
   20POPC    OA  995   3.578   5.916   1.107  0.3227  0.0512 -0.0650
   20POPC     P  996   3.539   5.761   1.121 -0.0234  0.1784  0.3951
   20POPC    OB  997   3.653   5.666   1.116  0.3103  0.5896  0.1245
   20POPC    OC  998   3.424   5.748   1.029  0.0528  0.3662  0.2719
   20POPC    OD  999   3.491   5.767   1.275 -0.4559 -0.4271  0.2865
   20POPC    CC 1000   3.600   5.799   1.362 -0.1244 -0.2481 -0.1918
   20POPC    CD 1001   3.578   5.807   1.513 -0.0237  0.1047 -0.1949
   20POPC    OE 1002   3.706   5.810   1.575 -0.1066  0.2321 -0.0294
   20POPC   C1A 1003   3.782   5.919   1.581  0.2680  0.0294 -0.9293
   20POPC    OF 1004   3.743   6.026   1.535 -0.3167  0.0032 -0.5167
   20POPC   C1B 1005   3.911   5.880   1.642 -0.2249 -0.0369  0.0954
   20POPC   C1C 1006   3.920   5.927   1.788  0.5482 -0.2221  0.1113
   20POPC   C1D 1007   4.056   5.915   1.858  0.7453 -0.0647 -0.2385
   20POPC   C1E 1008   4.029   5.964   2.001  0.4903  0.4065 -0.4430
   20POPC   C1F 1009   4.146   5.937   2.095 -0.3444  0.0859  0.5168
   20POPC   C1G 1010   4.259   6.040   2.089 -0.0482 -0.2706 -0.1499
   20POPC   C1H 1011   4.352   6.008   2.206  0.4844 -0.0725 -0.5172
   20POPC   C1I 1012   4.473   6.102   2.214  0.2590  0.2024 -0.3271
   20POPC   C1J 1013   4.510   6.153   2.331  0.0231 -0.5855  0.1046
   20POPC   C1K 1014   4.453   6.132   2.471 -0.2941  0.4555  0.1435
   20POPC   C1L 1015   4.486   6.253   2.558  0.3170  0.1307  0.3654
   20POPC   C1M 1016   4.449   6.223   2.704  0.0982  0.3083  0.3462
   20POPC   C1N 1017   4.466   0.009   2.788  0.7505  0.3414  0.1678
   20POPC   C1O 1018   4.396   0.004   2.924 -0.4028  0.6261 -0.4065
   20POPC   C1P 1019   4.496   0.071   3.018  0.3258 -0.5520 -0.3275
   20POPC   C1Q 1020   4.427   0.086   3.153 -0.0015 -0.0668 -0.5448
   20POPC   C1R 1021   4.528   0.101   3.267  0.1037 -0.0083 -0.6468
   20POPC    CE 1022   3.492   5.685   1.547 -0.0513  0.1081 -0.2514
   20POPC    OG 1023   3.465   5.688   1.688  0.0864  0.1697 -0.2258
   20POPC   C2A 1024   3.546   5.623   1.770  0.1935  0.5302 -0.0425
   20POPC    OH 1025   3.619   5.538   1.718 -0.1730  0.1368  0.0812
   20POPC   C2B 1026   3.501   5.637   1.910  0.1849 -0.4394  0.0603
   20POPC   C2C 1027   3.631   5.638   1.990  0.4368 -0.1244 -0.3533
   20POPC   C2D 1028   3.619   5.703   2.128  0.1867  0.1354 -0.4951
   20POPC   C2E 1029   3.756   5.720   2.194  0.2189 -0.5127 -0.3858
   20POPC   C2F 1030   3.734   5.757   2.341  0.3577 -0.5541 -0.3549
   20POPC   C2G 1031   3.848   5.712   2.432 -0.2594 -0.1288  0.6375
   20POPC   C2H 1032   3.849   5.746   2.582 -0.1662  0.3687  0.5274
   20POPC   C2I 1033   3.772   5.654   2.677 -0.2886  0.1830  0.2521
   20POPC   C2J 1034   3.796   5.706   2.819 -0.0283  0.4291  0.1191
   20POPC   C2K 1035   3.711   5.624   2.917 -0.0182  0.0182 -0.2142
   20POPC   C2L 1036   3.768   5.649   3.056 -0.1554  0.2115 -0.1929
   20POPC   C2M 1037   3.778   5.796   3.098 -0.0598  0.1830 -0.1160
   20POPC   C2N 1038   3.856   5.838   3.223  0.0607  0.9478 -0.4432
   20POPC   C2O 1039   3.775   5.804   3.348  0.3063  0.0274 -0.5279
   20POPC   C2P 1040   3.680   5.922   3.369  0.2615 -0.1561  0.3301
   21POPC   CN1 1041   4.651   1.286   0.919 -0.4913 -0.3170  0.1491
   21POPC   CN2 1042   4.482   1.251   1.077 -0.5002 -0.3817  0.3775
   21POPC   CN3 1043   4.440   1.379   0.897 -0.2957 -0.0721  0.2800
   21POPC   NTM 1044   4.546   1.355   0.995 -0.4364 -0.4483  0.3427
   21POPC    CA 1045   4.590   1.482   1.055 -0.3357 -0.4499  0.2720
   21POPC    CB 1046   4.505   1.555   1.159 -0.2813 -0.3370  0.2367
   21POPC    OA 1047   4.376   1.613   1.144 -0.2114 -0.3651 -0.5150
   21POPC     P 1048   4.364   1.764   1.088  0.1011 -0.1961 -0.1293
   21POPC    OB 1049   4.222   1.788   1.055  0.1057 -0.1018 -0.0808
   21POPC    OC 1050   4.471   1.770   0.987  0.2201 -0.2794 -0.0089
   21POPC    OD 1051   4.419   1.822   1.228  0.0378 -0.2505 -0.0822
   21POPC    CC 1052   4.312   1.848   1.320 -0.0224 -0.5067 -0.0777
   21POPC    CD 1053   4.360   1.880   1.461 -0.2373  0.1761 -0.1524
   21POPC    OE 1054   4.259   1.904   1.559  0.0585 -0.0594  0.2150
   21POPC   C1A 1055   4.192   1.805   1.618 -0.5319  0.0714 -0.2315
   21POPC    OF 1056   4.174   1.697   1.561 -0.0509 -0.1056 -0.0517
   21POPC   C1B 1057   4.119   1.853   1.737  0.4905  0.4809  0.2404
   21POPC   C1C 1058   4.182   1.788   1.860 -0.3429 -0.1284  0.3548
   21POPC   C1D 1059   4.295   1.875   1.916  0.2303 -0.5536 -0.1268
   21POPC   C1E 1060   4.351   1.809   2.042  0.4199  0.1891  0.1873
   21POPC   C1F 1061   4.269   1.824   2.171  0.1885  0.0962  0.0523
   21POPC   C1G 1062   4.246   1.959   2.237  0.3643 -0.0260  0.3656
   21POPC   C1H 1063   4.374   2.015   2.299  0.3475  0.0379  0.3442
   21POPC   C1I 1064   4.338   2.126   2.398  0.2590  0.4029 -0.0975
   21POPC   C1J 1065   4.364   2.122   2.529  0.2528  0.0464 -0.1064
   21POPC   C1K 1066   4.430   1.992   2.575 -0.1493 -0.1247 -0.0083
   21POPC   C1L 1067   4.505   2.018   2.706 -0.0443 -0.4006 -0.0138
   21POPC   C1M 1068   4.403   1.997   2.818  0.1042 -0.6039  0.0837
   21POPC   C1N 1069   4.489   2.000   2.945 -0.0277 -0.1090  0.1634
   21POPC   C1O 1070   4.416   1.989   3.079  0.0296  0.4854  0.2468
   21POPC   C1P 1071   4.522   1.992   3.189  0.0582  0.2611  0.2256
   21POPC   C1Q 1072   4.477   1.909   3.310  0.5271  0.0133  0.2324
   21POPC   C1R 1073   4.357   1.970   3.381  0.4024  0.4274 -0.3246
   21POPC    CE 1074   4.468   1.988   1.451  0.1668 -0.2245 -0.1460
   21POPC    OG 1075   4.422   2.112   1.397  0.2310 -0.0420  0.2161
   21POPC   C2A 1076   4.513   2.183   1.331  0.5480  0.4429  1.1607
   21POPC    OH 1077   4.624   2.138   1.304 -0.1367 -0.6950  0.1140
   21POPC   C2B 1078   4.459   2.298   1.256  0.7342 -0.0248  0.2968
   21POPC   C2C 1079   4.538   2.421   1.299  0.2126  0.2440  0.4952
   21POPC   C2D 1080   4.540   2.449   1.449  0.3698  0.5267  0.4426
   21POPC   C2E 1081   4.643   2.560   1.469  0.2620  0.6314  0.4234
   21POPC   C2F 1082   4.694   2.572   1.613  0.5937 -0.2404  0.3898
   21POPC   C2G 1083   4.799   2.683   1.622  0.1810  0.1722  0.1673
   21POPC   C2H 1084   4.835   2.718   1.767  0.5406  0.0430  0.1102
   21POPC   C2I 1085   4.899   2.598   1.838  0.1560 -0.2227  0.0161
   21POPC   C2J 1086   4.909   2.623   1.988 -0.3511  0.0306  0.0084
   21POPC   C2K 1087   4.932   2.770   2.024 -0.5094 -0.1008  0.6674
   21POPC   C2L 1088   4.900   2.792   2.172 -0.1223  0.4166  0.6780
   21POPC   C2M 1089   4.998   2.729   2.270  0.0326  0.1756  0.3679
   21POPC   C2N 1090   4.952   2.747   2.414  0.2325  0.0877  0.4431
   21POPC   C2O 1091   5.051   2.721   2.529  0.2639 -0.0563  0.3830
   21POPC   C2P 1092   5.106   2.578   2.525  0.3678 -0.0311  0.8596
   22POPC   CN1 1093   0.733   1.343   1.376  0.1799  0.6060  0.3080
   22POPC   CN2 1094   0.773   1.109   1.404  0.1032 -0.0274  0.2373
   22POPC   CN3 1095   0.899   1.234   1.233 -0.5938 -0.0439  0.0540
   22POPC   NTM 1096   0.773   1.219   1.307 -0.3197  0.2827  0.5897
   22POPC    CA 1097   0.678   1.204   1.196  0.5673 -0.3422 -0.0933
   22POPC    CB 1098   0.526   1.200   1.212  0.5089  0.1548 -0.4877
   22POPC    OA 1099   0.478   1.330   1.248  0.1941 -0.1089  0.0726
   22POPC     P 1100   0.318   1.328   1.259  0.1857  0.1466 -0.0037
   22POPC    OB 1101   0.271   1.188   1.262  0.1525  0.1597  0.0865
   22POPC    OC 1102   0.254   1.421   1.162 -0.2913 -0.0035  0.1633
   22POPC    OD 1103   0.293   1.398   1.402 -0.0016 -0.2598  0.1628
   22POPC    CC 1104   0.306   1.302   1.507  0.8796  0.3582  0.6271
   22POPC    CD 1105   0.339   1.355   1.647  0.2054  0.9428  0.5742
   22POPC    OE 1106   0.388   1.256   1.739  0.0886  0.0307 -0.3224
   22POPC   C1A 1107   0.499   1.185   1.724  0.3057  0.3617 -0.2808
   22POPC    OF 1108   0.569   1.201   1.624  0.3242  0.3438 -0.2707
   22POPC   C1B 1109   0.518   1.078   1.824  0.5573  0.0500 -0.6610
   22POPC   C1C 1110   0.445   0.950   1.779  0.6168 -0.1414 -0.2189
   22POPC   C1D 1111   0.440   0.831   1.875  0.1234  0.1044  0.0626
   22POPC   C1E 1112   0.370   0.717   1.800 -0.1161  0.3664 -0.1142
   22POPC   C1F 1113   0.328   0.605   1.895  0.3332  0.4267  0.1576
   22POPC   C1G 1114   0.441   0.523   1.958  0.0228 -0.2243 -0.1136
   22POPC   C1H 1115   0.390   0.408   2.045  0.4123  0.0155  0.4411
   22POPC   C1I 1116   0.489   0.292   2.051 -0.3003 -0.6322 -0.1040
   22POPC   C1J 1117   0.476   0.184   2.128  0.0257 -0.3589  0.3375
   22POPC   C1K 1118   0.361   0.194   2.228 -0.3282  0.3971 -0.1329
   22POPC   C1L 1119   0.404   0.215   2.373 -0.3419 -0.4421 -0.0018
   22POPC   C1M 1120   0.481   0.092   2.422  0.5612  0.0934 -0.0452
   22POPC   C1N 1121   0.551   0.127   2.554  0.0119  0.4559  0.1528
   22POPC   C1O 1122   0.464   0.193   2.661  0.4132  0.4422  0.4903
   22POPC   C1P 1123   0.549   0.201   2.787  0.5545  0.6016  0.3859
   22POPC   C1Q 1124   0.472   0.231   2.916 -0.3480  0.1536 -0.0437
   22POPC   C1R 1125   0.570   0.225   3.033 -0.4755 -0.2507  0.0446
   22POPC    CE 1126   0.212   1.427   1.692 -0.3633  0.1455  0.2690
   22POPC    OG 1127   0.218   1.568   1.716 -0.3292  0.1909 -0.0008
   22POPC   C2A 1128   0.120   1.626   1.784 -0.3387  0.0019  0.1487
   22POPC    OH 1129   0.011   1.569   1.796 -0.2607 -0.2193 -0.1806
   22POPC   C2B 1130   0.157   1.759   1.838 -0.0471 -0.0212  0.0039
   22POPC   C2C 1131   0.232   1.744   1.971 -0.2231  0.3671  0.1473
   22POPC   C2D 1132   0.162   1.665   2.082 -0.0837  0.3913  0.2522
   22POPC   C2E 1133   0.251   1.607   2.192 -0.4101 -0.1092  0.2560
   22POPC   C2F 1134   0.279   1.460   2.162 -0.2358 -0.0674  0.2133
   22POPC   C2G 1135   0.346   1.403   2.287  0.5388  0.1196 -0.1128
   22POPC   C2H 1136   0.383   1.257   2.256 -0.5511 -0.1340 -0.2645
   22POPC   C2I 1137   0.445   1.190   2.379  0.2522  0.6906 -0.2085
   22POPC   C2J 1138   0.340   1.148   2.482  1.0245 -0.0142  0.3076
   22POPC   C2K 1139   0.389   1.103   2.619  0.2998 -0.4993  0.4104
   22POPC   C2L 1140   0.277   1.079   2.721 -0.3317 -0.0701 -0.1800
   22POPC   C2M 1141   0.153   1.006   2.670 -0.2478 -0.2633 -0.1099
   22POPC   C2N 1142   0.057   0.972   2.785 -0.0255  0.3212  0.2507
   22POPC   C2O 1143   6.234   0.908   2.747 -0.0060  0.1033  0.5514
   22POPC   C2P 1144   6.165   0.865   2.877 -0.2198 -0.5766  0.2182
   23POPC   CN1 1145   2.141   3.775   1.052  0.2889  0.2328  0.3589
   23POPC   CN2 1146   2.019   3.802   1.254 -0.0909 -0.5958  0.0147
   23POPC   CN3 1147   1.910   3.702   1.073  0.0583 -0.3157  0.0832
   23POPC   NTM 1148   2.008   3.805   1.107  0.0262 -0.2609  0.0114
   23POPC    CA 1149   1.964   3.938   1.063 -0.1293 -0.2211  0.2875
   23POPC    CB 1150   1.848   4.006   1.136  0.1190  0.2731  0.2235
   23POPC    OA 1151   1.720   3.942   1.141  0.4159 -0.3453 -0.0223
   23POPC     P 1152   1.627   3.994   1.262 -0.0558 -0.2275 -0.4320
   23POPC    OB 1153   1.483   3.962   1.266 -0.1074  0.0525  0.0362
   23POPC    OC 1154   1.664   4.135   1.288  0.0200 -0.3624  0.2096
   23POPC    OD 1155   1.717   3.915   1.371 -0.2547  0.0862 -0.0384
   23POPC    CC 1156   1.714   3.980   1.498  0.0547  0.3106 -0.1451
   23POPC    CD 1157   1.727   3.890   1.621 -0.2334  0.1196 -0.2533
   23POPC    OE 1158   1.713   3.956   1.747  0.2174 -0.0782 -0.0975
   23POPC   C1A 1159   1.595   3.990   1.799  0.2747 -0.3698  0.2238
   23POPC    OF 1160   1.495   3.987   1.728  0.2848  0.2107  0.1832
   23POPC   C1B 1161   1.605   4.058   1.930 -0.0337 -0.0767  0.0952
   23POPC   C1C 1162   1.508   3.997   2.032 -0.4232 -0.0508 -0.2585
   23POPC   C1D 1163   1.525   4.057   2.171  0.0674 -0.4586 -0.1411
   23POPC   C1E 1164   1.445   3.988   2.281  0.0665 -0.4531 -0.1384
   23POPC   C1F 1165   1.482   3.842   2.306 -0.4653 -0.5545  0.0754
   23POPC   C1G 1166   1.429   3.784   2.437 -0.1636  0.0545  0.4728
   23POPC   C1H 1167   1.465   3.636   2.456 -0.4980 -0.1001 -0.0692
   23POPC   C1I 1168   1.604   3.620   2.518 -0.4295 -0.2401 -0.2585
   23POPC   C1J 1169   1.639   3.504   2.572  0.0344  0.1786  0.3532
   23POPC   C1K 1170   1.540   3.387   2.569  0.1827  0.0667 -0.1879
   23POPC   C1L 1171   1.624   3.266   2.608 -0.0254  0.0805  0.3162
   23POPC   C1M 1172   1.660   3.256   2.756  0.1125 -0.3315  0.2570
   23POPC   C1N 1173   1.775   3.156   2.770  0.2310 -0.2490 -0.1054
   23POPC   C1O 1174   1.820   3.147   2.916  0.6613  0.5351 -0.1842
   23POPC   C1P 1175   1.915   3.028   2.930  0.4183  0.3407 -0.1924
   23POPC   C1Q 1176   1.981   3.010   3.067 -0.0912  0.5310  0.0796
   23POPC   C1R 1177   1.876   2.992   3.177  0.8920 -0.6552  0.8486
   23POPC    CE 1178   1.867   3.834   1.599 -0.2296  0.1046 -0.1921
   23POPC    OG 1179   1.973   3.928   1.582  0.2484 -0.3483  0.2628
   23POPC   C2A 1180   2.100   3.887   1.579  0.3373 -0.0374 -0.4066
   23POPC    OH 1181   2.129   3.768   1.573 -0.3419 -0.2525  0.3515
   23POPC   C2B 1182   2.208   3.987   1.571  0.1828  0.1816  0.1706
   23POPC   C2C 1183   2.283   4.015   1.701  0.0748 -0.2729  0.3298
   23POPC   C2D 1184   2.186   4.075   1.804 -0.1762  0.1614 -0.1586
   23POPC   C2E 1185   2.233   4.129   1.939 -0.6458  0.1358  0.0154
   23POPC   C2F 1186   2.125   4.196   2.024 -0.5245  0.0547  0.2333
   23POPC   C2G 1187   2.180   4.238   2.161 -0.3903  0.0604  0.1774
   23POPC   C2H 1188   2.079   4.302   2.256 -0.2619  0.1720  0.2386
   23POPC   C2I 1189   2.114   4.311   2.405  0.3008  0.4813  0.0902
   23POPC   C2J 1190   1.992   4.351   2.488 -0.0075 -0.1792 -0.0367
   23POPC   C2K 1191   2.027   4.450   2.599 -0.7722 -0.1287  0.1634
   23POPC   C2L 1192   2.012   4.595   2.553  0.0766  0.0440  0.4086
   23POPC   C2M 1193   2.023   4.698   2.667 -0.6227 -0.1200  0.6294
   23POPC   C2N 1194   2.024   4.844   2.621 -0.0793 -0.3495 -0.1047
   23POPC   C2O 1195   2.047   4.948   2.731 -0.3935  0.3381 -0.6810
   23POPC   C2P 1196   2.172   4.916   2.814 -0.5495  0.3884 -0.4258
   24POPC   CN1 1197   2.606   0.187   1.047 -0.7333 -0.4141  0.5026
   24POPC   CN2 1198   2.523   0.086   1.251 -0.3787  0.6259  0.3676
   24POPC   CN3 1199   2.750   0.136   1.242 -0.1439 -0.8505  0.4946
   24POPC   NTM 1200   2.637   0.096   1.158 -0.2518 -0.3731  0.4076
   24POPC    CA 1201   2.674   6.315   1.082 -0.1158  0.0425 -0.1904
   24POPC    CB 1202   2.714   6.180   1.141 -0.0193  0.0902 -0.1461
   24POPC    OA 1203   2.636   6.118   1.244  0.2315  0.2127  0.1171
   24POPC     P 1204   2.691   5.970   1.279 -0.0125  0.0224 -0.3075
   24POPC    OB 1205   2.726   5.893   1.157  0.2548 -0.4268  0.0490
   24POPC    OC 1206   2.616   5.913   1.393  0.3075 -0.0688 -0.1443
   24POPC    OD 1207   2.833   6.012   1.340  0.0598  0.0100 -0.4667
   24POPC    CC 1208   2.848   6.009   1.482  0.5808 -0.1786 -0.5224
   24POPC    CD 1209   2.923   6.127   1.545  0.3973 -0.0595 -0.5278
   24POPC    OE 1210   3.003   6.094   1.659 -0.2472  0.1332 -0.0076
   24POPC   C1A 1211   3.126   6.048   1.634 -0.4171 -0.4303  0.1824
   24POPC    OF 1212   3.170   6.044   1.520  0.5227  0.4971  0.5015
   24POPC   C1B 1213   3.215   6.017   1.748  0.2217  0.0148 -0.1885
   24POPC   C1C 1214   3.295   6.138   1.796  0.2416  0.0219 -0.2404
   24POPC   C1D 1215   3.412   6.076   1.873  0.1520  0.3746  0.1798
   24POPC   C1E 1216   3.462   6.176   1.977  0.2810  0.5850 -0.0827
   24POPC   C1F 1217   3.580   6.119   2.056 -0.5166 -0.1631  0.5877
   24POPC   C1G 1218   3.639   6.243   2.124 -0.4015 -0.1102  0.3932
   24POPC   C1H 1219   3.770   6.210   2.196  0.0284 -0.1060 -0.3796
   24POPC   C1I 1220   3.798   6.330   2.287 -0.0026 -0.4486  0.0819
   24POPC   C1J 1221   3.892   6.317   2.380 -0.0006 -0.5397  0.0670
   24POPC   C1K 1222   3.947   6.176   2.402  0.4000 -0.4134 -0.1192
   24POPC   C1L 1223   4.005   6.169   2.544  0.4385  0.4096 -0.0885
   24POPC   C1M 1224   4.100   6.052   2.575  0.3194  0.2911 -0.1681
   24POPC   C1N 1225   4.122   6.033   2.726 -0.3903  0.0670 -0.0860
   24POPC   C1O 1226   4.206   5.909   2.759 -0.4735 -0.0720 -0.3912
   24POPC   C1P 1227   4.208   5.891   2.911  0.1391 -0.3807 -0.4335
   24POPC   C1Q 1228   4.267   5.998   3.003  0.1659 -0.3072 -0.5359
   24POPC   C1R 1229   4.251   5.945   3.146 -0.1920  0.4183 -0.3058
   24POPC    CE 1230   2.814   6.230   1.578  0.4551 -0.2420  0.2699
   24POPC    OG 1231   2.846   0.002   1.659 -0.4229  0.1776  0.0485
   24POPC   C2A 1232   2.759   0.102   1.673 -0.6075 -0.0134  0.2674
   24POPC    OH 1233   2.686   0.116   1.575 -0.0900 -0.6738 -0.2271
   24POPC   C2B 1234   2.786   0.208   1.773  0.2701 -0.0258  0.0519
   24POPC   C2C 1235   2.675   0.312   1.757  0.1289 -0.1493  0.2266
   24POPC   C2D 1236   2.692   0.424   1.860  0.2719  0.1150 -0.0831
   24POPC   C2E 1237   2.641   0.376   1.996 -0.0207 -0.3685 -0.3601
   24POPC   C2F 1238   2.491   0.409   2.004  0.1012  0.0607  0.2207
   24POPC   C2G 1239   2.430   0.401   2.144 -0.1212 -0.1583  0.1120
   24POPC   C2H 1240   2.282   0.435   2.127 -0.2150 -0.4839  0.2571
   24POPC   C2I 1241   2.215   0.441   2.264 -0.3945 -0.0997  0.1548
   24POPC   C2J 1242   2.209   0.314   2.350 -0.1184 -0.2443 -0.0379
   24POPC   C2K 1243   2.160   0.347   2.491 -0.0895 -0.8342  0.1133
   24POPC   C2L 1244   2.228   0.257   2.594  0.0990 -0.3906  0.3798
   24POPC   C2M 1245   2.191   0.305   2.735 -0.4714 -0.2014  0.1689
   24POPC   C2N 1246   2.221   0.204   2.846  0.2045 -0.1108  0.0730
   24POPC   C2O 1247   2.365   0.198   2.897  0.0015 -0.0578  0.6617
   24POPC   C2P 1248   2.378   0.083   2.997  0.1419 -0.4334  0.2167
   25POPC   CN1 1249   4.899   2.380   1.197  0.5376  0.2586 -0.5449
   25POPC   CN2 1250   4.844   2.384   0.973  0.1314  0.2890 -0.5103
   25POPC   CN3 1251   4.836   2.179   1.086  0.0123 -0.2707 -0.6757
   25POPC   NTM 1252   4.914   2.303   1.073 -0.3133 -0.0440 -0.4654
   25POPC    CA 1253   5.051   2.274   1.029 -0.2775  0.4524 -0.6833
   25POPC    CB 1254   5.169   2.369   1.011  0.1886  0.0088 -0.0198
   25POPC    OA 1255   5.134   2.470   0.916 -0.3565  0.0605  0.2324
   25POPC     P 1256   5.225   2.602   0.933 -0.2755  0.0676 -0.2453
   25POPC    OB 1257   5.189   2.693   0.822  0.1417  0.4596 -0.0612
   25POPC    OC 1258   5.364   2.563   0.967 -0.5017 -0.1198  0.4701
   25POPC    OD 1259   5.153   2.655   1.067 -0.4468 -0.1665 -0.2444
   25POPC    CC 1260   5.055   2.757   1.044 -0.2938  0.0602  0.1069
   25POPC    CD 1261   4.971   2.788   1.168 -0.2947  0.3970  0.0225
   25POPC    OE 1262   4.841   2.834   1.133 -0.3420  0.4497  0.2657
   25POPC   C1A 1263   4.738   2.754   1.110  0.3148 -0.2443 -0.3018
   25POPC    OF 1264   4.752   2.633   1.093  0.5341 -0.3139  0.3190
   25POPC   C1B 1265   4.608   2.820   1.084  0.3085 -0.0780  0.1383
   25POPC   C1C 1266   4.535   2.873   1.208  0.0969 -0.0983  0.0221
   25POPC   C1D 1267   4.401   2.939   1.173  0.0139 -0.3341 -0.1064
   25POPC   C1E 1268   4.302   2.830   1.132 -0.2333 -0.1747  0.0598
   25POPC   C1F 1269   4.266   2.729   1.241  0.0209 -0.3542 -0.0212
   25POPC   C1G 1270   4.166   2.633   1.176 -0.1690  0.1989 -0.5615
   25POPC   C1H 1271   4.126   2.523   1.275 -0.4336  0.0927 -0.7858
   25POPC   C1I 1272   4.021   2.549   1.383  0.3387  0.1697 -0.0426
   25POPC   C1J 1273   4.023   2.486   1.500  0.4741 -0.0209 -0.1466
   25POPC   C1K 1274   4.123   2.376   1.534  0.2686 -0.2881 -0.3975
   25POPC   C1L 1275   4.183   2.416   1.669 -0.1421 -0.0625 -0.2806
   25POPC   C1M 1276   4.278   2.307   1.720 -0.2619  0.0021  0.0825
   25POPC   C1N 1277   4.361   2.348   1.842 -0.2864 -0.5625  0.2911
   25POPC   C1O 1278   4.507   2.302   1.835 -0.3171 -0.5857 -0.2431
   25POPC   C1P 1279   4.526   2.150   1.839 -0.2007 -0.5699 -0.2214
   25POPC   C1Q 1280   4.672   2.110   1.814  0.1935  0.4225  0.3935
   25POPC   C1R 1281   4.727   2.113   1.671  0.0514 -0.6841  0.3030
   25POPC    CE 1282   5.048   2.885   1.258 -0.2999  0.8089 -0.4138
   25POPC    OG 1283   4.995   2.923   1.386 -0.2876 -0.2966 -0.0671
   25POPC   C2A 1284   5.074   3.016   1.439 -0.6716  0.2340 -0.4146
   25POPC    OH 1285   5.153   3.089   1.378 -0.3328  0.0100 -0.2453
   25POPC   C2B 1286   5.035   3.033   1.581 -0.1027 -0.3256 -0.1874
   25POPC   C2C 1287   5.162   3.017   1.665 -0.0916 -0.7211 -0.2751
   25POPC   C2D 1288   5.140   3.045   1.814  0.3665  0.2701 -0.3859
   25POPC   C2E 1289   5.261   3.010   1.901  0.1946 -0.1399 -0.3086
   25POPC   C2F 1290   5.256   3.009   2.054 -0.0578 -0.2718 -0.3163
   25POPC   C2G 1291   5.393   2.979   2.115 -0.1767  0.4538  0.3232
   25POPC   C2H 1292   5.421   3.036   2.255  0.2719  0.1397  0.3645
   25POPC   C2I 1293   5.305   2.999   2.347  0.0777 -0.0712  0.0389
   25POPC   C2J 1294   5.334   3.038   2.492 -1.0435 -0.1320  0.2839
   25POPC   C2K 1295   5.342   3.190   2.509  0.1972 -0.1114 -0.3825
   25POPC   C2L 1296   5.213   3.273   2.501  0.1573 -0.0122  0.9334
   25POPC   C2M 1297   5.242   3.421   2.523  0.0276  0.0847  0.4613
   25POPC   C2N 1298   5.122   3.505   2.567 -0.4443 -0.1020 -0.4403
   25POPC   C2O 1299   5.151   3.656   2.567 -0.0077 -0.1818  0.2254
   25POPC   C2P 1300   5.233   3.707   2.685 -0.5647  0.3887  0.3702
   26POPC   CN1 1301   4.783   3.850   1.578  0.0502 -0.0599  0.1340
   26POPC   CN2 1302   4.563   3.937   1.638 -0.1190  0.3067 -0.1185
   26POPC   CN3 1303   4.599   3.710   1.607  0.3612  0.3307  0.0605
   26POPC   NTM 1304   4.638   3.842   1.556  0.0527  0.3814 -0.0483
   26POPC    CA 1305   4.619   3.846   1.410  0.6007  0.4291 -0.1222
   26POPC    CB 1306   4.475   3.869   1.363  0.5273  0.4577  0.1155
   26POPC    OA 1307   4.379   3.776   1.414  0.3400  0.1219 -0.8235
   26POPC     P 1308   4.296   3.703   1.297 -0.1410 -0.0241 -0.3934
   26POPC    OB 1309   4.331   3.769   1.170  0.2363  0.0481 -0.2521
   26POPC    OC 1310   4.155   3.696   1.344 -0.0080 -0.3900 -0.0400
   26POPC    OD 1311   4.382   3.567   1.308 -0.4600 -0.2253 -0.3683
   26POPC    CC 1312   4.341   3.509   1.432  0.0355 -0.3039 -0.2431
   26POPC    CD 1313   4.399   3.372   1.472 -0.1182 -0.1472  0.5338
   26POPC    OE 1314   4.377   3.325   1.605 -0.2025 -0.1315  0.5255
   26POPC   C1A 1315   4.259   3.278   1.644 -0.2888  0.0051  0.4298
   26POPC    OF 1316   4.153   3.306   1.586  0.1461  0.0142 -0.3777
   26POPC   C1B 1317   4.268   3.205   1.772 -0.2264 -0.0132  0.4145
   26POPC   C1C 1318   4.300   3.057   1.747 -0.0065  0.0676  0.2043
   26POPC   C1D 1319   4.344   2.983   1.874 -0.3868  0.0218  0.3121
   26POPC   C1E 1320   4.374   2.836   1.844 -0.0458  0.1147  0.1961
   26POPC   C1F 1321   4.479   2.776   1.937  0.2977  0.1619 -0.1580
   26POPC   C1G 1322   4.417   2.751   2.075 -0.2788  0.1913 -0.4126
   26POPC   C1H 1323   4.528   2.756   2.180 -0.1982  0.1587 -0.4966
   26POPC   C1I 1324   4.473   2.706   2.314 -0.4037 -0.2890 -0.7444
   26POPC   C1J 1325   4.512   2.593   2.373 -0.3146 -0.0815 -0.4052
   26POPC   C1K 1326   4.628   2.513   2.314  0.1117  0.4458 -0.2993
   26POPC   C1L 1327   4.647   2.381   2.391 -0.8394  0.1607 -0.5425
   26POPC   C1M 1328   4.774   2.308   2.347 -0.7570 -0.3076  0.4554
   26POPC   C1N 1329   4.764   2.249   2.206  0.2211  0.6879 -0.0470
   26POPC   C1O 1330   4.902   2.196   2.168 -0.0349 -0.1797  0.1955
   26POPC   C1P 1331   5.001   2.313   2.160 -0.4309  0.1642  0.2835
   26POPC   C1Q 1332   5.141   2.265   2.123 -0.4902  0.2655 -0.0771
   26POPC   C1R 1333   5.150   2.180   1.996  0.2817 -0.2846  0.3394
   26POPC    CE 1334   4.543   3.368   1.421 -0.0941  0.0850  0.5808
   26POPC    OG 1335   4.633   3.272   1.477  0.0914  0.0762  0.2675
   26POPC   C2A 1336   4.694   3.307   1.589 -0.2489 -0.1935  0.5393
   26POPC    OH 1337   4.736   3.422   1.602  0.4160 -0.3212 -0.4052
   26POPC   C2B 1338   4.715   3.191   1.679  0.1632 -0.2517  0.3727
   26POPC   C2C 1339   4.718   3.226   1.828  0.2059  0.3257  0.2413
   26POPC   C2D 1340   4.747   3.105   1.918 -0.1808 -0.1368 -0.2547
   26POPC   C2E 1341   4.702   3.129   2.062  0.2110 -0.0500 -0.1465
   26POPC   C2F 1342   4.795   3.228   2.132 -0.0282  0.1008 -0.0425
   26POPC   C2G 1343   4.773   3.256   2.281  0.0217 -0.0446 -0.0077
   26POPC   C2H 1344   4.848   3.145   2.354  0.2426  0.0466 -0.0935
   26POPC   C2I 1345   4.804   3.141   2.501 -0.0892 -0.7213 -0.2085
   26POPC   C2J 1346   4.657   3.100   2.504 -0.4481  0.4942 -0.4485
   26POPC   C2K 1347   4.624   3.026   2.634  0.2420 -0.0230 -0.5646
   26POPC   C2L 1348   4.491   2.951   2.630  0.3836 -0.2971 -0.1557
   26POPC   C2M 1349   4.440   2.899   2.765  0.0756  0.3096 -0.0401
   26POPC   C2N 1350   4.311   2.820   2.741  0.4874 -0.1578 -0.7139
   26POPC   C2O 1351   4.283   2.740   2.868  0.0440  0.1984 -0.5892
   26POPC   C2P 1352   4.177   2.631   2.847 -0.5714  0.6075  0.3062
   27POPC   CN1 1353   6.102   4.090   1.463  0.1085 -0.0016 -0.3965
   27POPC   CN2 1354   5.987   3.923   1.594 -0.1788 -0.1583 -0.2933
   27POPC   CN3 1355   6.103   3.855   1.407 -0.6904 -0.5796 -0.0344
   27POPC   NTM 1356   6.022   3.966   1.458  0.0448  0.0311 -0.1771
   27POPC    CA 1357   5.902   3.978   1.374  0.0685  0.2064 -0.1876
   27POPC    CB 1358   5.775   4.056   1.406  0.0728  0.2424 -0.2576
   27POPC    OA 1359   5.805   4.184   1.462  0.1045  0.1852 -0.1438
   27POPC     P 1360   5.667   4.260   1.497 -0.0724 -0.1712 -0.0546
   27POPC    OB 1361   5.585   4.189   1.598  0.3420  0.0308  0.4299
   27POPC    OC 1362   5.621   4.319   1.370 -0.5274 -0.2638  0.0676
   27POPC    OD 1363   5.734   4.380   1.581  0.0267  0.0364 -0.4260
   27POPC    CC 1364   5.779   4.336   1.710 -0.0022  0.3594 -0.3039
   27POPC    CD 1365   5.926   4.301   1.735 -0.1434  0.0460  0.1051
   27POPC    OE 1366   5.958   4.255   1.867  0.0098 -0.0521  0.0337
   27POPC   C1A 1367   5.909   4.136   1.903  0.3724 -0.1743  0.1242
   27POPC    OF 1368   5.841   4.064   1.831  0.1771  0.1000  0.0339
   27POPC   C1B 1369   5.961   4.101   2.037  0.2425 -0.4522  0.1017
   27POPC   C1C 1370   5.864   4.019   2.122 -0.0035 -0.2260  0.0406
   27POPC   C1D 1371   5.922   3.984   2.259 -0.2873  0.0136  0.2228
   27POPC   C1E 1372   5.909   4.103   2.354  0.2849  0.1882  0.0865
   27POPC   C1F 1373   5.952   4.066   2.496  0.1176 -0.2371  0.0248
   27POPC   C1G 1374   5.924   4.169   2.606  0.8910 -0.1964  0.1887
   27POPC   C1H 1375   6.019   4.289   2.601  0.6583 -0.0039  0.3817
   27POPC   C1I 1376   6.009   4.395   2.711 -0.6376  0.3904 -0.0950
   27POPC   C1J 1377   6.110   4.469   2.755 -0.1829  0.0517 -0.5424
   27POPC   C1K 1378   6.245   4.438   2.692  0.1065  0.0478  0.0706
   27POPC   C1L 1379   0.045   4.457   2.797  0.4280 -0.0279 -0.2505
   27POPC   C1M 1380   0.189   4.445   2.747  0.4082  0.1000 -0.3414
   27POPC   C1N 1381   0.287   4.466   2.863  0.4028 -0.0338 -0.3119
   27POPC   C1O 1382   0.305   4.612   2.908 -0.8589 -0.1966  0.8076
   27POPC   C1P 1383   0.400   4.622   3.027  0.1318 -0.1534  0.0337
   27POPC   C1Q 1384   0.387   4.766   3.078 -0.2303 -0.2543  0.2376
   27POPC   C1R 1385   0.426   4.767   3.226 -0.3355 -0.7210  0.2684
   27POPC    CE 1386   6.010   4.426   1.709  0.1035 -0.2147 -0.3542
   27POPC    OG 1387   6.009   4.496   1.584  0.2003 -0.0967 -0.2892
   27POPC   C2A 1388   6.109   4.468   1.500  0.5374  0.7151 -0.1701
   27POPC    OH 1389   6.192   4.381   1.526  0.4391  0.7623  0.3076
   27POPC   C2B 1390   6.087   4.521   1.364 -0.1879  0.7458 -0.0444
   27POPC   C2C 1391   6.204   4.604   1.312  0.1352  0.3290  0.0176
   27POPC   C2D 1392   6.199   4.671   1.175  0.4239  0.0822 -0.1161
   27POPC   C2E 1393   6.110   4.795   1.188  0.2724 -0.0386 -0.0086
   27POPC   C2F 1394   6.172   4.896   1.284 -0.0454  0.3689 -0.2303
   27POPC   C2G 1395   6.063   4.981   1.351 -0.1900 -0.1035  0.1357
   27POPC   C2H 1396   6.143   5.080   1.436 -0.0248 -0.1489  0.0342
   27POPC   C2I 1397   6.213   5.018   1.556  0.6221  0.0846 -0.2177
   27POPC   C2J 1398   6.113   4.937   1.640  0.3034  0.6568 -0.0430
   27POPC   C2K 1399   6.183   4.914   1.773 -0.0798  0.2455  0.0899
   27POPC   C2L 1400   6.093   4.844   1.875 -0.3460  0.2819 -0.1221
   27POPC   C2M 1401   5.981   4.943   1.909  0.0305  0.6160  0.1367
   27POPC   C2N 1402   5.900   4.888   2.026  0.4184 -0.4437 -0.0854
   27POPC   C2O 1403   5.836   4.751   1.997  0.5607 -0.5791  0.2465
   27POPC   C2P 1404   5.723   4.787   1.901  0.4722  0.4647  0.7215
   28POPC   CN1 1405   1.163   3.083   1.608 -0.0172 -0.0041 -0.1948
   28POPC   CN2 1406   1.208   3.299   1.508 -0.2035  0.6638  0.4991
   28POPC   CN3 1407   1.045   3.285   1.682  0.9501 -0.3662  0.7955
   28POPC   NTM 1408   1.106   3.213   1.569 -0.0019  0.0606 -0.0044
   28POPC    CA 1409   0.993   3.166   1.486 -0.0459 -0.3046  0.2594
   28POPC    CB 1410   0.880   3.261   1.447 -0.1822 -0.6631 -0.2260
   28POPC    OA 1411   0.925   3.381   1.381 -0.3456 -0.4452  0.0578
   28POPC     P 1412   0.828   3.509   1.389  0.0935 -0.1171  0.1278
   28POPC    OB 1413   0.685   3.471   1.397 -0.0469  0.2889 -0.3761
   28POPC    OC 1414   0.879   3.636   1.333  0.6699 -0.3704  0.0673
   28POPC    OD 1415   0.856   3.530   1.546 -0.1182 -0.2005  0.1773
   28POPC    CC 1416   0.770   3.628   1.604  0.3904  0.1449  0.3587
   28POPC    CD 1417   0.727   3.580   1.742 -0.4175 -0.8721 -0.2329
   28POPC    OE 1418   0.653   3.686   1.803 -0.0948 -0.5479 -0.4039
   28POPC   C1A 1419   0.543   3.637   1.860 -0.3248  0.4570  0.0363
   28POPC    OF 1420   0.518   3.517   1.865  0.0876  0.3844  0.5354
   28POPC   C1B 1421   0.450   3.728   1.930 -0.0237  0.3647  0.5671
   28POPC   C1C 1422   0.435   3.699   2.080  0.3793 -0.1135  0.5167
   28POPC   C1D 1423   0.480   3.825   2.153  0.4933  0.2669 -0.2046
   28POPC   C1E 1424   0.477   3.792   2.302  0.0285 -0.0256 -0.2777
   28POPC   C1F 1425   0.512   3.921   2.377  0.4689 -0.6610  0.6246
   28POPC   C1G 1426   0.394   4.016   2.394  0.3373 -0.6155 -0.4807
   28POPC   C1H 1427   0.434   4.109   2.509 -0.7591 -0.2368 -0.3943
   28POPC   C1I 1428   0.553   4.202   2.487 -0.3603 -0.6855 -0.1477
   28POPC   C1J 1429   0.634   4.232   2.588 -0.6075 -0.0813 -0.1235
   28POPC   C1K 1430   0.610   4.167   2.724  0.1406  0.6431  0.3627
   28POPC   C1L 1431   0.725   4.071   2.755  0.1048  0.4033 -0.2524
   28POPC   C1M 1432   0.701   4.016   2.895  0.0701 -0.0908 -0.4492
   28POPC   C1N 1433   0.591   3.910   2.904 -0.0628  0.0880  0.1066
   28POPC   C1O 1434   0.650   3.775   2.863 -0.3269 -0.0489  0.1745
   28POPC   C1P 1435   0.546   3.664   2.885  0.2062 -0.5017  0.4296
   28POPC   C1Q 1436   0.501   3.647   3.030 -0.3724  0.3749  0.3603
   28POPC   C1R 1437   0.420   3.519   3.049 -0.1382  0.1662 -0.0501
   28POPC    CE 1438   0.848   3.532   1.822 -0.2543 -0.0108  0.0470
   28POPC    OG 1439   0.827   3.462   1.945  0.0020 -0.2320 -0.0337
   28POPC   C2A 1440   0.771   3.341   1.938 -0.5004 -0.0137  0.1248
   28POPC    OH 1441   0.747   3.276   1.837 -0.2532  0.2668 -0.1167
   28POPC   C2B 1442   0.739   3.287   2.073 -0.1451 -0.2748  0.1068
   28POPC   C2C 1443   0.596   3.311   2.119 -0.1171 -0.2840  0.1972
   28POPC   C2D 1444   0.567   3.253   2.258 -0.3225 -0.3881  0.1123
   28POPC   C2E 1445   0.638   3.320   2.376 -0.1037  0.2455 -0.3700
   28POPC   C2F 1446   0.594   3.243   2.501  0.6919 -0.0567 -0.2699
   28POPC   C2G 1447   0.672   3.304   2.619  0.2192 -0.1753  0.1090
   28POPC   C2H 1448   0.630   3.250   2.756  0.2093 -0.0739  0.1455
   28POPC   C2I 1449   0.744   3.282   2.853  0.1106 -0.1184  0.2766
   28POPC   C2J 1450   0.874   3.201   2.837  0.0101 -0.2525  0.1383
   28POPC   C2K 1451   0.981   3.221   2.944 -0.4797  1.1193  0.3977
   28POPC   C2L 1452   0.926   3.213   3.086 -0.2277  0.3055  0.4537
   28POPC   C2M 1453   1.004   3.292   3.191  0.0377  0.1424  0.3787
   28POPC   C2N 1454   0.926   3.314   3.321  0.2266  0.3854  0.4517
   28POPC   C2O 1455   0.822   3.425   3.307 -0.0191  0.1134  0.1018
   28POPC   C2P 1456   0.770   3.456   3.447  0.7668  0.1587  0.3915
   29POPC   CN1 1457   2.788   4.230   1.165  0.8677 -0.1347  0.2890
   29POPC   CN2 1458   2.682   4.446   1.196  1.1322 -0.5907 -0.2807
   29POPC   CN3 1459   2.689   4.303   1.378 -0.1834 -0.0266 -0.0953
   29POPC   NTM 1460   2.679   4.303   1.231  0.3289 -0.5422 -0.1352
   29POPC    CA 1461   2.550   4.256   1.178  0.2093 -0.5396  0.1492
   29POPC    CB 1462   2.490   4.121   1.216 -0.5956 -0.2027  0.0994
   29POPC    OA 1463   2.571   4.016   1.162 -0.0539  0.1603  0.1966
   29POPC     P 1464   2.518   3.873   1.215  0.2644  0.0388  0.1896
   29POPC    OB 1465   2.568   3.758   1.137 -0.1570 -0.1699  0.2270
   29POPC    OC 1466   2.373   3.872   1.245  0.3053 -0.2468  0.3737
   29POPC    OD 1467   2.593   3.884   1.357  0.0998 -0.1644  0.2916
   29POPC    CC 1468   2.725   3.831   1.343 -0.0347 -0.3065 -0.4765
   29POPC    CD 1469   2.821   3.867   1.457 -0.1312 -0.0761 -0.4685
   29POPC    OE 1470   2.961   3.872   1.431 -0.0087  0.1412  0.2058
   29POPC   C1A 1471   3.012   3.994   1.420 -0.1392  0.1748 -0.0407
   29POPC    OF 1472   2.946   4.097   1.419 -0.4593 -0.0168  0.6092
   29POPC   C1B 1473   3.160   3.984   1.419 -0.1645 -0.1575 -0.5458
   29POPC   C1C 1474   3.223   4.103   1.490 -0.0966 -0.3877 -0.2212
   29POPC   C1D 1475   3.375   4.087   1.490 -0.0837 -0.2949  0.4116
   29POPC   C1E 1476   3.436   4.209   1.558  0.1277  0.0789 -0.4446
   29POPC   C1F 1477   3.410   4.213   1.709  0.2281  0.1679 -0.4284
   29POPC   C1G 1478   3.493   4.319   1.779 -0.0787 -0.0566  0.2816
   29POPC   C1H 1479   3.464   4.324   1.930 -0.3417 -0.2113  0.2360
   29POPC   C1I 1480   3.565   4.237   2.005 -0.2387 -0.1316  0.1910
   29POPC   C1J 1481   3.583   4.251   2.136  0.1418  0.2804  0.0926
   29POPC   C1K 1482   3.498   4.338   2.229 -0.1375 -0.0835  0.1814
   29POPC   C1L 1483   3.504   4.287   2.373  0.0712  0.0223  0.2108
   29POPC   C1M 1484   3.632   4.325   2.448 -0.3992  0.1263  0.9622
   29POPC   C1N 1485   3.634   4.266   2.590 -0.0644 -0.9392  0.5215
   29POPC   C1O 1486   3.742   4.332   2.676 -0.5956  0.2620  0.2917
   29POPC   C1P 1487   3.752   4.268   2.815 -0.0381 -0.0891  0.0916
   29POPC   C1Q 1488   3.852   4.330   2.912 -0.3617  0.1570  0.2679
   29POPC   C1R 1489   3.992   4.361   2.859 -0.2231  0.1309  0.6146
   29POPC    CE 1490   2.784   3.774   1.573 -0.1843  0.4977 -0.0204
   29POPC    OG 1491   2.693   3.804   1.679  0.1961 -0.0764  0.4758
   29POPC   C2A 1492   2.602   3.715   1.719 -0.1299 -0.0046 -0.0822
   29POPC    OH 1493   2.580   3.610   1.660 -0.0879 -0.2258  0.2922
   29POPC   C2B 1494   2.515   3.749   1.834 -0.1688 -0.4918  0.0323
   29POPC   C2C 1495   2.593   3.816   1.947 -0.0842 -0.0147 -0.3095
   29POPC   C2D 1496   2.500   3.869   2.056  0.5251  0.2729  0.0746
   29POPC   C2E 1497   2.566   3.973   2.146  0.0730  0.3478  0.3238
   29POPC   C2F 1498   2.473   4.023   2.257 -0.4573  0.5878 -0.2279
   29POPC   C2G 1499   2.530   4.121   2.359 -0.0295  0.2769 -0.1660
   29POPC   C2H 1500   2.574   4.253   2.294  0.0008  0.2488 -0.2031
   29POPC   C2I 1501   2.633   4.349   2.398  0.0699 -0.2416  0.2118
   29POPC   C2J 1502   2.544   4.414   2.503 -0.0531  0.3081 -0.2326
   29POPC   C2K 1503   2.605   4.465   2.634 -0.1278 -0.5626  0.1478
   29POPC   C2L 1504   2.484   4.490   2.725 -0.1517 -0.1921  0.0174
   29POPC   C2M 1505   2.529   4.531   2.865 -0.4653  0.1132  0.0298
   29POPC   C2N 1506   2.411   4.520   2.962 -0.3755  0.1730  0.1461
   29POPC   C2O 1507   2.444   4.572   3.101  0.1596  0.0410  0.0730
   29POPC   C2P 1508   2.467   4.724   3.103 -0.4990  0.1447 -0.0551
   30POPC   CN1 1509   1.264   3.919   1.542 -0.1030  0.1327  0.1751
   30POPC   CN2 1510   1.142   3.709   1.577 -0.1794 -0.4534 -0.0834
   30POPC   CN3 1511   1.303   3.713   1.418 -0.2494  0.2520 -0.0657
   30POPC   NTM 1512   1.203   3.801   1.480 -0.1520  0.0421  0.3966
   30POPC    CA 1513   1.111   3.840   1.372 -0.4925 -0.4955  0.4870
   30POPC    CB 1514   0.994   3.938   1.382 -0.0540  0.0423  0.4426
   30POPC    OA 1515   1.019   4.075   1.413  0.1264  0.1953 -0.3634
   30POPC     P 1516   0.902   4.168   1.472  0.0427 -0.1550  0.0252
   30POPC    OB 1517   0.761   4.144   1.432 -0.0522 -0.1187  0.3346
   30POPC    OC 1518   0.969   4.300   1.464  0.3386 -0.2864  0.3403
   30POPC    OD 1519   0.932   4.110   1.619 -0.1118 -0.8201 -0.2046
   30POPC    CC 1520   1.026   4.188   1.692 -0.8355 -0.0597 -0.0673
   30POPC    CD 1521   1.095   4.118   1.809 -0.0681  0.1687 -0.3730
   30POPC    OE 1522   1.020   4.053   1.912  0.2241  0.5699  0.0975
   30POPC   C1A 1523   1.045   3.924   1.927  0.6929  0.7034  0.4896
   30POPC    OF 1524   1.107   3.859   1.843 -0.5961  0.4993 -0.3298
   30POPC   C1B 1525   0.983   3.890   2.057  0.4395  0.4807  0.3099
   30POPC   C1C 1526   1.016   3.752   2.115  0.9177  0.4099 -0.1203
   30POPC   C1D 1527   0.964   3.742   2.259  0.4665  0.3902 -0.2818
   30POPC   C1E 1528   0.959   3.593   2.294 -0.1407  0.4908  0.0616
   30POPC   C1F 1529   0.925   3.567   2.441  0.5381 -0.6629  0.0244
   30POPC   C1G 1530   1.055   3.584   2.518  0.0668 -0.0621  0.7012
   30POPC   C1H 1531   1.042   3.584   2.671 -0.2849 -0.1337  0.6718
   30POPC   C1I 1532   1.179   3.549   2.730  0.1983  0.5643 -0.0031
   30POPC   C1J 1533   1.197   3.596   2.853 -0.3579  0.3059  0.1835
   30POPC   C1K 1534   1.082   3.644   2.941 -0.4145  0.1914  0.1715
   30POPC   C1L 1535   1.127   3.691   3.079 -0.1385  0.3632  0.0219
   30POPC   C1M 1536   1.013   3.731   3.173 -0.0872  0.2080  0.1511
   30POPC   C1N 1537   1.055   3.847   3.263  0.9133  0.0849 -0.1378
   30POPC   C1O 1538   1.149   3.804   3.376  0.5157 -0.6386 -0.0773
   30POPC   C1P 1539   1.073   3.749   3.497  0.3362  0.1669  0.1814
   30POPC   C1Q 1540   1.172   3.710   3.607 -0.4914 -0.5607  0.6803
   30POPC   C1R 1541   1.258   3.586   3.579  0.0565 -0.0228 -0.0482
   30POPC    CE 1542   1.207   4.209   1.861  0.0802 -0.4230  0.3556
   30POPC    OG 1543   1.170   4.346   1.878  0.2501 -0.3376  0.0281
   30POPC   C2A 1544   1.270   4.429   1.907 -0.1031  0.0600  0.1179
   30POPC    OH 1545   1.383   4.400   1.868 -0.2008 -0.1124 -0.0372
   30POPC   C2B 1546   1.220   4.559   1.957  0.2104  0.1555  0.1845
   30POPC   C2C 1547   1.317   4.664   1.903  0.2231  0.2138  0.3207
   30POPC   C2D 1548   1.258   4.803   1.926  0.1750  0.2311  0.0894
   30POPC   C2E 1549   1.346   4.905   1.853  0.2199  0.2112  0.1157
   30POPC   C2F 1550   1.319   5.054   1.875 -0.1457  0.2600 -0.6206
   30POPC   C2G 1551   1.363   5.093   2.016 -0.3508  0.0076 -0.4867
   30POPC   C2H 1552   1.351   5.244   2.038  0.9298  0.0831 -0.2381
   30POPC   C2I 1553   1.329   5.273   2.187  0.5461 -0.3734 -0.2032
   30POPC   C2J 1554   1.269   5.414   2.192  0.3382 -0.4696  0.0209
   30POPC   C2K 1555   1.243   5.467   2.333  0.1980 -0.4147 -0.0260
   30POPC   C2L 1556   1.114   5.547   2.351  0.3839 -0.1543  0.1455
   30POPC   C2M 1557   1.087   5.594   2.494  0.5516  0.2820  0.0376
   30POPC   C2N 1558   1.215   5.651   2.554  0.4962  0.0854  0.3467
   30POPC   C2O 1559   1.186   5.717   2.689 -0.2206  1.2803 -0.3637
   30POPC   C2P 1560   1.305   5.693   2.782 -0.4701  0.2685 -0.2864
   31POPC   CN1 1561   4.141   0.840   0.840  0.6242  0.1758  0.5437
   31POPC   CN2 1562   4.029   0.782   1.044  0.6601 -0.2385  0.0053
   31POPC   CN3 1563   4.027   0.628   0.857 -0.2581  0.0830 -0.3716
   31POPC   NTM 1564   4.026   0.769   0.897  0.4600 -0.0129 -0.0104
   31POPC    CA 1565   3.900   0.816   0.839  0.0760 -0.5459  0.3748
   31POPC    CB 1566   3.768   0.830   0.916 -0.3458  0.0512 -0.4321
   31POPC    OA 1567   3.729   0.706   0.977 -0.1073  0.1826 -0.0095
   31POPC     P 1568   3.602   0.740   1.069 -0.0114  0.1593  0.1313
   31POPC    OB 1569   3.487   0.780   0.985  0.0286  0.5608  0.2668
   31POPC    OC 1570   3.660   0.846   1.155 -0.2073  0.2181  0.1917
   31POPC    OD 1571   3.574   0.606   1.154  0.2851 -0.1148 -0.1983
   31POPC    CC 1572   3.675   0.587   1.253  0.3413  0.6038 -0.1168
   31POPC    CD 1573   3.798   0.502   1.222 -0.0837  0.0021 -0.1657
   31POPC    OE 1574   3.783   0.379   1.151 -0.0067 -0.1934  0.1568
   31POPC   C1A 1575   3.883   0.332   1.076 -0.1994  0.4742 -0.5308
   31POPC    OF 1576   3.985   0.397   1.055  0.1497  0.0932 -0.0292
   31POPC   C1B 1577   3.847   0.201   1.018  0.5502 -0.2780  0.6505
   31POPC   C1C 1578   3.959   0.136   0.936  0.0083 -0.4743  0.0525
   31POPC   C1D 1579   4.083   0.098   1.018  0.1544 -0.0390  0.0331
   31POPC   C1E 1580   4.199   0.042   0.935 -0.1742 -0.1908 -0.3292
   31POPC   C1F 1581   4.311   6.334   1.028  0.3593  0.5303 -0.5843
   31POPC   C1G 1582   4.452   6.340   0.970  0.6255 -0.2635 -0.0376
   31POPC   C1H 1583   4.545   6.266   1.065  0.4001 -0.0287  0.3676
   31POPC   C1I 1584   4.687   6.288   1.011  0.2682 -0.4176 -0.1459
   31POPC   C1J 1585   4.789   6.243   1.083  0.3679 -0.1150 -0.0966
   31POPC   C1K 1586   4.774   6.189   1.225  0.1100  0.0824 -0.0483
   31POPC   C1L 1587   4.762   6.036   1.217  0.1774  0.0822 -0.1464
   31POPC   C1M 1588   4.773   5.976   1.357 -0.2542  0.1907 -0.0636
   31POPC   C1N 1589   4.713   5.838   1.384 -0.7985  0.3794 -0.2959
   31POPC   C1O 1590   4.561   5.829   1.373 -0.7827 -0.0610 -0.1817
   31POPC   C1P 1591   4.488   5.872   1.500 -0.3096  0.3621 -0.0491
   31POPC   C1Q 1592   4.523   5.785   1.622 -0.1876  0.0263 -0.3202
   31POPC   C1R 1593   4.468   5.849   1.750  0.7338 -0.1821  0.1869
   31POPC    CE 1594   3.899   0.516   1.335 -0.4051  0.8816  0.0207
   31POPC    OG 1595   3.866   0.459   1.462  0.4141  0.2085 -0.0588
   31POPC   C2A 1596   3.910   0.518   1.573 -0.2799  0.1134  0.2711
   31POPC    OH 1597   3.978   0.620   1.565  0.3538 -0.3482 -0.3749
   31POPC   C2B 1598   3.876   0.447   1.698  0.0382 -0.4615  0.0315
   31POPC   C2C 1599   3.999   0.437   1.789  0.1886  0.5256 -0.0596
   31POPC   C2D 1600   3.966   0.342   1.904  0.2401  0.4928 -0.0720
   31POPC   C2E 1601   3.885   0.412   2.013 -0.0955 -0.2735  0.1727
   31POPC   C2F 1602   3.805   0.311   2.097 -0.0148 -0.5522 -0.0829
   31POPC   C2G 1603   3.733   0.365   2.221  0.3375 -1.0115  0.3228
   31POPC   C2H 1604   3.834   0.421   2.322 -0.0499 -0.3683  0.3553
   31POPC   C2I 1605   3.772   0.446   2.459 -0.0671  0.1358  0.2588
   31POPC   C2J 1606   3.725   0.318   2.529 -0.6789 -0.1170 -0.6036
   31POPC   C2K 1607   3.696   0.366   2.672  0.6517 -0.1002 -0.3297
   31POPC   C2L 1608   3.635   0.262   2.765  0.3051  0.3087 -0.0981
   31POPC   C2M 1609   3.635   0.324   2.906 -0.0249 -0.0720  0.0714
   31POPC   C2N 1610   3.771   0.327   2.976  0.3255  0.2776 -0.6133
   31POPC   C2O 1611   3.757   0.408   3.105  0.2469 -0.1482 -0.3505
   31POPC   C2P 1612   3.878   0.386   3.196 -0.1448 -0.4982  0.0915
   32POPC   CN1 1613   2.637   5.035   1.492 -0.0452 -0.3810  0.5234
   32POPC   CN2 1614   2.560   4.823   1.404 -0.7415  0.2310 -0.0190
   32POPC   CN3 1615   2.779   4.855   1.430  0.0840 -0.3758  0.0737
   32POPC   NTM 1616   2.659   4.930   1.391 -0.0331 -0.3454  0.4894
   32POPC    CA 1617   2.672   4.973   1.251 -0.2981  0.1857  0.6250
   32POPC    CB 1618   2.568   5.068   1.190  0.2403  0.0476 -0.5453
   32POPC    OA 1619   2.439   5.007   1.198  0.2959 -0.0275 -0.1917
   32POPC     P 1620   2.314   5.100   1.159  0.0578 -0.2233  0.1017
   32POPC    OB 1621   2.204   5.017   1.105  0.0848 -0.4640  0.4140
   32POPC    OC 1622   2.369   5.220   1.093  0.5458 -0.1547  0.6314
   32POPC    OD 1623   2.277   5.156   1.306  0.1372  0.1226 -0.0089
   32POPC    CC 1624   2.175   5.075   1.365  0.1883  0.0031 -0.0811
   32POPC    CD 1625   2.179   5.087   1.518 -0.0228 -0.0358 -0.0720
   32POPC    OE 1626   2.129   4.975   1.590 -0.5410  0.0120 -0.3539
   32POPC   C1A 1627   2.214   4.876   1.616 -0.2590  0.4264  0.3187
   32POPC    OF 1628   2.335   4.900   1.606 -0.2942  0.6056  0.3088
   32POPC   C1B 1629   2.159   4.759   1.688  0.0410 -0.1500 -0.3802
   32POPC   C1C 1630   2.185   4.771   1.838 -0.6419  0.0089 -0.2714
   32POPC   C1D 1631   2.126   4.655   1.918  0.2858 -0.0947  0.2790
   32POPC   C1E 1632   2.107   4.689   2.066  0.0712  0.3417  0.1511
   32POPC   C1F 1633   2.238   4.696   2.144  0.1180 -0.2662  0.1265
   32POPC   C1G 1634   2.215   4.747   2.287  0.6231  0.3960 -0.0254
   32POPC   C1H 1635   2.346   4.757   2.366  0.4779  0.0382  0.2645
   32POPC   C1I 1636   2.452   4.858   2.320 -0.0141  0.3825 -0.1335
   32POPC   C1J 1637   2.540   4.917   2.401  0.0469  0.4941 -0.2823
   32POPC   C1K 1638   2.548   4.868   2.545 -0.7407  0.3387 -0.2815
   32POPC   C1L 1639   2.586   4.998   2.618 -0.1274 -0.3772  0.7019
   32POPC   C1M 1640   2.467   5.092   2.635 -0.1512 -0.2906  0.0800
   32POPC   C1N 1641   2.523   5.226   2.683 -0.2409 -0.1657 -0.1612
   32POPC   C1O 1642   2.426   5.343   2.703  0.0842  0.0685  0.0660
   32POPC   C1P 1643   2.329   5.366   2.587  0.0563  0.2156  0.1190
   32POPC   C1Q 1644   2.244   5.490   2.621 -0.0973  0.2311 -0.3204
   32POPC   C1R 1645   2.142   5.522   2.511 -0.4354 -0.0881 -0.1010
   32POPC    CE 1646   2.124   5.226   1.551 -0.1429 -0.0940 -0.0257
   32POPC    OG 1647   1.984   5.251   1.542 -0.1680 -0.1969  0.0855
   32POPC   C2A 1648   1.949   5.379   1.528  0.1602 -0.1509 -0.3050
   32POPC    OH 1649   2.037   5.462   1.507  0.0359 -0.0890 -0.5826
   32POPC   C2B 1650   1.807   5.418   1.523  0.1936 -0.0459 -0.4553
   32POPC   C2C 1651   1.723   5.358   1.636 -0.3139  0.7273 -0.4094
   32POPC   C2D 1652   1.789   5.394   1.770 -0.1649 -0.3104 -0.1920
   32POPC   C2E 1653   1.695   5.401   1.890 -0.3276 -0.1498 -0.3282
   32POPC   C2F 1654   1.767   5.431   2.021 -0.1233 -0.2075 -0.4273
   32POPC   C2G 1655   1.678   5.435   2.145  0.1163 -0.1443 -0.2550
   32POPC   C2H 1656   1.758   5.504   2.255  0.1855  0.0892 -0.4511
   32POPC   C2I 1657   1.677   5.539   2.381  0.4386 -0.1784 -0.2131
   32POPC   C2J 1658   1.744   5.652   2.459 -0.2112  0.1493 -0.1214
   32POPC   C2K 1659   1.679   5.677   2.595 -0.0870  0.3426 -0.0977
   32POPC   C2L 1660   1.682   5.547   2.675 -0.0393  0.4896  0.1418
   32POPC   C2M 1661   1.620   5.545   2.815 -0.5970  0.5878 -0.0997
   32POPC   C2N 1662   1.639   5.413   2.890  0.1277  0.6682 -0.1326
   32POPC   C2O 1663   1.780   5.355   2.889 -0.0859  0.1415  0.0449
   32POPC   C2P 1664   1.778   5.218   2.958 -0.0043  0.2031  0.1697
   33POPC   CN1 1665   2.447   1.941   1.321  0.4158  0.3234 -0.0098
   33POPC   CN2 1666   2.426   2.101   1.481  0.8216 -0.4942  0.4123
   33POPC   CN3 1667   2.288   2.118   1.288  0.2573  0.1184 -0.3349
   33POPC   NTM 1668   2.423   2.086   1.335  0.0560  0.2336  0.3450
   33POPC    CA 1669   2.522   2.179   1.279 -0.2856  0.1768 -0.3626
   33POPC    CB 1670   2.572   2.164   1.135 -0.1877 -0.7006 -0.2424
   33POPC    OA 1671   2.470   2.207   1.044 -0.2355 -0.2243  0.0297
   33POPC     P 1672   2.476   2.359   0.993  0.0435 -0.3907 -0.4386
   33POPC    OB 1673   2.392   2.380   0.873 -0.0595  0.0037 -0.3001
   33POPC    OC 1674   2.611   2.419   1.003 -0.3601  0.4855 -0.1140
   33POPC    OD 1675   2.407   2.435   1.117 -0.0326 -0.1963 -0.6000
   33POPC    CC 1676   2.270   2.467   1.092 -0.1706  0.0573  0.4362
   33POPC    CD 1677   2.193   2.473   1.224 -0.0580 -0.2565  0.5166
   33POPC    OE 1678   2.051   2.488   1.221 -0.0532 -0.3142 -0.1659
   33POPC   C1A 1679   1.974   2.388   1.179 -0.2471 -0.3152  0.1840
   33POPC    OF 1680   2.027   2.279   1.155  0.4120  0.0134  0.1193
   33POPC   C1B 1681   1.831   2.415   1.205 -0.1948 -0.1001  0.2465
   33POPC   C1C 1682   1.765   2.318   1.303  0.2677 -0.5495  0.1202
   33POPC   C1D 1683   1.777   2.342   1.454  0.0551 -0.1498  0.0765
   33POPC   C1E 1684   1.905   2.281   1.512 -0.1626 -1.0547 -0.3685
   33POPC   C1F 1685   1.892   2.278   1.664 -0.1300 -0.4865 -0.3499
   33POPC   C1G 1686   1.837   2.143   1.711 -0.2953 -0.3978 -0.2879
   33POPC   C1H 1687   1.842   2.134   1.864  0.6308 -0.3756 -0.3080
   33POPC   C1I 1688   1.799   1.995   1.909 -0.8433  0.2157  0.1772
   33POPC   C1J 1689   1.785   1.967   2.039 -0.3281 -0.0918  0.1675
   33POPC   C1K 1690   1.811   2.060   2.157  0.1202  0.2310 -0.1804
   33POPC   C1L 1691   1.916   1.990   2.245  0.3830  0.8756  0.0224
   33POPC   C1M 1692   1.922   2.029   2.393 -0.4869  0.0149  0.2912
   33POPC   C1N 1693   2.030   1.938   2.451 -0.1996 -0.2779 -0.6794
   33POPC   C1O 1694   2.173   1.956   2.401  0.0798 -0.2939  0.0883
   33POPC   C1P 1695   2.256   2.019   2.512 -0.0545  0.5244 -0.2716
   33POPC   C1Q 1696   2.236   1.974   2.657  0.4002 -0.3132 -0.4629
   33POPC   C1R 1697   2.360   2.020   2.733  0.3552 -0.4553 -0.3029
   33POPC    CE 1698   2.262   2.571   1.319 -0.3938  0.7322 -0.2413
   33POPC    OG 1699   2.215   2.561   1.454  0.1940 -0.7625 -0.1287
   33POPC   C2A 1700   2.247   2.464   1.539  0.3583 -0.1695  0.4979
   33POPC    OH 1701   2.325   2.376   1.503  0.4300  0.2190 -0.3184
   33POPC   C2B 1702   2.204   2.497   1.677 -0.4646 -0.0705  0.2195
   33POPC   C2C 1703   2.276   2.402   1.771 -0.0019 -0.1587 -0.2199
   33POPC   C2D 1704   2.212   2.378   1.908  0.3683  0.1012 -0.0009
   33POPC   C2E 1705   2.322   2.331   2.004  0.2407  0.1305  0.1601
   33POPC   C2F 1706   2.263   2.282   2.136  0.3557  0.0274  0.1730
   33POPC   C2G 1707   2.202   2.388   2.228  0.1333 -0.3789  0.4974
   33POPC   C2H 1708   2.307   2.493   2.266  0.3152 -0.1648 -0.5673
   33POPC   C2I 1709   2.257   2.603   2.360 -0.3213 -0.5108 -0.4925
   33POPC   C2J 1710   2.232   2.569   2.507 -0.0109  0.1368 -0.2849
   33POPC   C2K 1711   2.168   2.674   2.597 -0.1320 -0.1664 -0.0128
   33POPC   C2L 1712   2.026   2.707   2.550 -0.0120  0.3698 -0.0144
   33POPC   C2M 1713   1.995   2.856   2.538 -0.0978  0.4363  0.9427
   33POPC   C2N 1714   1.847   2.886   2.514 -0.1133 -0.0532  0.3949
   33POPC   C2O 1715   1.823   2.872   2.363 -0.2049  0.2765  0.3766
   33POPC   C2P 1716   1.674   2.893   2.336 -0.1647 -0.4159 -0.4439
   34POPC   CN1 1717   5.465   3.220   1.428 -0.1722  0.0747  0.3805
   34POPC   CN2 1718   5.392   3.204   1.213 -0.3235  0.2808  0.8522
   34POPC   CN3 1719   5.622   3.223   1.252 -0.1295 -0.0175  0.2353
   34POPC   NTM 1720   5.491   3.276   1.294  0.0397  0.2066  0.4778
   34POPC    CA 1721   5.475   3.421   1.280 -0.5051  0.1390  0.3757
   34POPC    CB 1722   5.549   3.542   1.339 -0.1955  0.0850  0.1027
   34POPC    OA 1723   5.689   3.517   1.356 -0.2025  0.2369  0.3929
   34POPC     P 1724   5.755   3.631   1.448  0.0783  0.2088  0.2250
   34POPC    OB 1725   5.729   3.591   1.588  0.0697 -0.7462 -0.0437
   34POPC    OC 1726   5.716   3.753   1.375  0.0781 -0.2421 -0.5355
   34POPC    OD 1727   5.914   3.614   1.424  0.0429 -0.2076  0.2771
   34POPC    CC 1728   5.961   3.492   1.482  0.2201 -0.1921  0.1655
   34POPC    CD 1729   6.107   3.448   1.464  0.2481  0.0882 -0.3021
   34POPC    OE 1730   6.115   3.312   1.421 -0.0717 -0.1026  0.2287
   34POPC   C1A 1731   6.232   3.252   1.401 -0.2200 -0.3225  0.0181
   34POPC    OF 1732   0.032   3.303   1.417 -0.3530 -0.0391  0.0376
   34POPC   C1B 1733   6.216   3.116   1.345  0.3091 -0.2300 -0.3725
   34POPC   C1C 1734   6.220   3.124   1.193 -0.3632  0.2625 -0.3679
   34POPC   C1D 1735   6.148   2.998   1.144  0.4537 -0.2652 -0.2258
   34POPC   C1E 1736   5.996   3.002   1.158  0.4889 -0.0330  0.1160
   34POPC   C1F 1737   5.929   2.864   1.159 -0.1156  0.2567  0.1387
   34POPC   C1G 1738   5.921   2.786   1.290 -0.1543 -0.1490 -0.1019
   34POPC   C1H 1739   5.833   2.842   1.402 -0.1923 -0.6276  0.1072
   34POPC   C1I 1740   5.812   2.733   1.509  0.0224 -0.6550  0.1224
   34POPC   C1J 1741   5.775   2.756   1.634  0.1635  0.0058  0.0506
   34POPC   C1K 1742   5.756   2.898   1.687 -0.0043 -0.0367  0.1051
   34POPC   C1L 1743   5.662   2.880   1.807 -0.4370 -1.0164 -0.3710
   34POPC   C1M 1744   5.730   2.830   1.935  0.2444 -0.7294 -0.6150
   34POPC   C1N 1745   5.844   2.922   1.979 -0.2342 -0.4333  0.0228
   34POPC   C1O 1746   5.931   2.855   2.085  0.1800 -0.0988 -0.1011
   34POPC   C1P 1747   6.019   2.963   2.147  0.0218  0.2281 -0.4426
   34POPC   C1Q 1748   6.116   2.905   2.251 -0.6023  0.2728  0.1717
   34POPC   C1R 1749   6.213   3.003   2.316 -0.3566  0.1060  0.0614
   34POPC    CE 1750   6.158   3.468   1.607 -0.0909  0.1927 -0.1947
   34POPC    OG 1751   6.149   3.595   1.672  0.0333  0.1093 -0.0167
   34POPC   C2A 1752   6.250   3.631   1.751 -0.2760  0.2756  0.3069
   34POPC    OH 1753   0.053   3.592   1.721 -0.4497  0.3489 -0.4522
   34POPC   C2B 1754   6.221   3.736   1.852  0.3795  0.5362  0.2292
   34POPC   C2C 1755   6.281   3.710   1.990 -0.6729 -0.6652  0.4849
   34POPC   C2D 1756   6.277   3.842   2.068  0.6565 -0.2363 -0.1408
   34POPC   C2E 1757   0.099   3.915   2.043  0.4132  0.0849 -0.4947
   34POPC   C2F 1758   0.107   4.030   2.144  0.4481 -0.4486  0.1097
   34POPC   C2G 1759   0.041   4.155   2.087  0.1876 -0.4338  0.4368
   34POPC   C2H 1760   0.023   4.251   2.204  0.0972 -0.1889  0.2225
   34POPC   C2I 1761   6.273   4.382   2.151  0.2860 -0.2315 -0.0992
   34POPC   C2J 1762   6.259   4.481   2.267 -0.4316  0.1655 -0.5191
   34POPC   C2K 1763   6.206   4.616   2.219 -0.4669  0.1923 -0.4036
   34POPC   C2L 1764   6.297   4.725   2.276 -0.2489 -0.1333 -0.1256
   34POPC   C2M 1765   0.001   4.845   2.182 -0.5197 -0.0769 -0.0948
   34POPC   C2N 1766   0.021   4.968   2.272 -0.6218 -0.1094 -0.0273
   34POPC   C2O 1767   0.038   5.091   2.183  0.3292 -0.3763 -0.2271
   34POPC   C2P 1768   6.212   5.141   2.132  0.1379 -0.4048  0.2457
   35POPC   CN1 1769   2.038   2.892   1.382  0.2106 -0.2230 -0.0253
   35POPC   CN2 1770   1.911   2.962   1.564  0.3495 -0.0218  0.1872
   35POPC   CN3 1771   1.900   2.730   1.484  0.1991  0.3321  0.0903
   35POPC   NTM 1772   1.908   2.872   1.448  0.1153  0.2994 -0.0561
   35POPC    CA 1773   1.809   2.904   1.344  0.1892 -0.3039 -0.3165
   35POPC    CB 1774   1.665   2.855   1.359  0.1308 -0.0618 -0.0604
   35POPC    OA 1775   1.617   2.870   1.493 -0.1482  0.7025 -0.2390
   35POPC     P 1776   1.457   2.862   1.500 -0.0941 -0.2274  0.0228
   35POPC    OB 1777   1.405   2.723   1.503  0.0728 -0.2917 -0.0985
   35POPC    OC 1778   1.418   2.944   1.384  0.3031  0.2882  0.2526
   35POPC    OD 1779   1.440   2.930   1.645  0.0157  0.3822 -0.2483
   35POPC    CC 1780   1.494   2.853   1.753  0.5863  0.1868 -0.6687
   35POPC    CD 1781   1.581   2.932   1.851  0.1598  0.3018 -0.3764
   35POPC    OE 1782   1.661   2.851   1.938  0.2281  0.8905  0.1137
   35POPC   C1A 1783   1.771   2.785   1.904 -0.0103  0.3811  0.3120
   35POPC    OF 1784   1.807   2.790   1.786 -0.1085  0.6197  0.2918
   35POPC   C1B 1785   1.819   2.687   2.004 -0.5015  0.0132  0.1916
   35POPC   C1C 1786   1.763   2.548   1.972 -0.2892 -0.0698  0.1824
   35POPC   C1D 1787   1.788   2.453   2.090  0.5274 -0.4191 -0.2651
   35POPC   C1E 1788   1.756   2.502   2.231 -0.1947 -0.1725 -0.5131
   35POPC   C1F 1789   1.784   2.394   2.336  0.2693  0.3112 -0.1319
   35POPC   C1G 1790   1.673   2.394   2.442  0.1389 -0.2578 -0.2646
   35POPC   C1H 1791   1.534   2.371   2.383 -0.2485  0.8849  0.1873
   35POPC   C1I 1792   1.507   2.222   2.363 -0.0894  0.8432  0.2816
   35POPC   C1J 1793   1.460   2.147   2.463  0.0613  0.6326  0.1950
   35POPC   C1K 1794   1.413   2.203   2.597 -0.6932  0.0034  0.2035
   35POPC   C1L 1795   1.385   2.081   2.685  0.0409  0.0911  0.5711
   35POPC   C1M 1796   1.358   2.128   2.828 -0.9149  0.1244  0.3832
   35POPC   C1N 1797   1.362   2.008   2.922  0.1186 -0.2828 -0.1627
   35POPC   C1O 1798   1.337   2.057   3.065  0.3695 -0.1556 -0.1623
   35POPC   C1P 1799   1.345   1.943   3.166 -0.1547  0.1717  0.2536
   35POPC   C1Q 1800   1.463   1.957   3.262 -0.4938  0.7069  0.5982
   35POPC   C1R 1801   1.437   1.857   3.375  0.0339 -0.0343  0.0726
   35POPC    CE 1802   1.502   3.055   1.894 -0.4356  0.0946 -0.8673
   35POPC    OG 1803   1.375   3.040   1.957  0.0442  0.1676  0.1392
   35POPC   C2A 1804   1.299   3.149   1.961  0.4929  0.4720  0.3678
   35POPC    OH 1805   1.305   3.234   1.872 -0.7469 -0.1951 -0.3858
   35POPC   C2B 1806   1.191   3.141   2.062  0.2461 -0.5428  0.0371
   35POPC   C2C 1807   1.232   3.207   2.195 -0.0614  0.0380 -0.1490
   35POPC   C2D 1808   1.124   3.188   2.301 -0.0531 -0.6427 -0.2558
   35POPC   C2E 1809   1.178   3.227   2.439 -0.5078 -0.2293 -0.1910
   35POPC   C2F 1810   1.201   3.100   2.521  0.0289  0.0328  0.0669
   35POPC   C2G 1811   1.276   3.140   2.648  0.3713  0.1391 -0.1693
   35POPC   C2H 1812   1.316   3.018   2.731  0.2972  0.2254 -0.0052
   35POPC   C2I 1813   1.362   3.032   2.877 -0.1640 -0.1818  0.1773
   35POPC   C2J 1814   1.394   2.893   2.934  0.4289  0.2050  0.7903
   35POPC   C2K 1815   1.538   2.845   2.917  0.2441 -0.0312 -0.1597
   35POPC   C2L 1816   1.578   2.710   2.977 -0.5498 -0.2205 -0.0467
   35POPC   C2M 1817   1.718   2.661   2.943 -0.4965  0.1214 -0.3232
   35POPC   C2N 1818   1.731   2.508   2.945  0.0596  0.1688  0.1006
   35POPC   C2O 1819   1.875   2.465   2.919  0.0707  0.1803  0.1452
   35POPC   C2P 1820   1.916   2.330   2.979 -0.3203  0.0242  0.0645
   36POPC   CN1 1821   3.278   5.108   1.015  0.1803 -0.2731 -0.6411
   36POPC   CN2 1822   3.192   4.963   1.193 -0.1952  0.0433 -0.0159
   36POPC   CN3 1823   3.274   4.876   0.981 -0.0012  0.2433 -0.1194
   36POPC   NTM 1824   3.203   4.986   1.048 -0.1345  0.0883 -0.0041
   36POPC    CA 1825   3.070   5.014   0.991 -0.1030 -0.1645 -0.2042
   36POPC    CB 1826   2.956   4.912   0.992 -0.3454  0.1045  0.1736
   36POPC    OA 1827   2.993   4.783   0.942 -0.3035  0.1067  0.1989
   36POPC     P 1828   2.905   4.673   1.020  0.1548 -0.5187 -0.1557
   36POPC    OB 1829   2.901   4.547   0.943 -0.2412 -0.3660 -0.3864
   36POPC    OC 1830   2.776   4.728   1.066  0.1951 -0.4966 -0.0690
   36POPC    OD 1831   3.008   4.663   1.144 -0.0895 -0.6851  0.0330
   36POPC    CC 1832   3.112   4.566   1.127  0.1576 -0.4651  0.2917
   36POPC    CD 1833   3.174   4.545   1.265 -0.0186 -0.3995  0.3826
   36POPC    OE 1834   3.305   4.487   1.260  0.0976 -0.1137  0.1066
   36POPC   C1A 1835   3.411   4.564   1.235 -0.0524  0.2183  0.4793
   36POPC    OF 1836   3.398   4.664   1.165  0.5036  0.1024  0.2008
   36POPC   C1B 1837   3.541   4.498   1.262 -0.0693  0.1625  0.4217
   36POPC   C1C 1838   3.588   4.543   1.400 -0.7201 -0.0356  0.7134
   36POPC   C1D 1839   3.689   4.447   1.464 -0.0986 -0.0842 -0.3070
   36POPC   C1E 1840   3.763   4.517   1.579 -0.0462 -0.2274 -0.2537
   36POPC   C1F 1841   3.855   4.424   1.658 -0.8971 -0.4737  0.4712
   36POPC   C1G 1842   3.947   4.515   1.740 -0.8640  0.2311 -0.3329
   36POPC   C1H 1843   3.884   4.606   1.845 -0.1635 -0.0140  0.3116
   36POPC   C1I 1844   3.801   4.536   1.953 -0.5700  0.0443  0.0368
   36POPC   C1J 1845   3.801   4.546   2.085 -0.3560  0.6989 -0.0123
   36POPC   C1K 1846   3.892   4.647   2.156 -0.2451  0.5612  0.0438
   36POPC   C1L 1847   3.815   4.695   2.280 -0.3323  0.0311  0.1954
   36POPC   C1M 1848   3.915   4.722   2.393 -0.3280 -0.2165  0.2527
   36POPC   C1N 1849   3.844   4.794   2.509 -0.5754 -0.0310 -0.0110
   36POPC   C1O 1850   3.922   4.788   2.640  0.0954  0.3909 -0.3821
   36POPC   C1P 1851   3.855   4.884   2.738 -0.5866 -0.4225 -0.0311
   36POPC   C1Q 1852   3.923   4.891   2.875 -0.0621 -0.2535 -0.2974
   36POPC   C1R 1853   3.896   4.762   2.953 -0.2288 -0.0565 -0.0288
   36POPC    CE 1854   3.067   4.484   1.356 -0.6703 -0.4794 -0.4370
   36POPC    OG 1855   3.097   4.482   1.495 -0.3455 -0.2555 -0.5037
   36POPC   C2A 1856   2.990   4.456   1.570 -0.0241  0.1372  0.1027
   36POPC    OH 1857   2.878   4.484   1.528  0.0067  0.0776 -0.0210
   36POPC   C2B 1858   3.034   4.428   1.708  0.5940 -0.1589 -0.1529
   36POPC   C2C 1859   2.986   4.291   1.758  0.1288  0.1470  0.2401
   36POPC   C2D 1860   3.061   4.241   1.882  0.3253 -0.1402  0.0057
   36POPC   C2E 1861   3.012   4.303   2.012  0.0914  0.1955 -0.2398
   36POPC   C2F 1862   3.087   4.256   2.137 -0.1408  0.1241 -0.1259
   36POPC   C2G 1863   3.031   4.334   2.256  0.5493  0.0010  0.2856
   36POPC   C2H 1864   3.075   4.270   2.388  0.0854 -0.2084  0.3432
   36POPC   C2I 1865   3.046   4.368   2.502 -0.4103  0.0468 -0.0006
   36POPC   C2J 1866   3.088   4.295   2.629  0.0933  0.4277  0.0518
   36POPC   C2K 1867   3.090   4.390   2.749  0.2402  0.2219  0.2135
   36POPC   C2L 1868   3.130   4.314   2.876  0.0195 -0.1668  0.0519
   36POPC   C2M 1869   3.199   4.396   2.985 -0.1481 -0.0075  0.0375
   36POPC   C2N 1870   3.344   4.417   2.943 -0.0674 -0.1140  0.2642
   36POPC   C2O 1871   3.409   4.534   3.018  0.0463  0.0662 -0.1123
   36POPC   C2P 1872   3.553   4.572   2.984  0.1303 -0.0607  0.1011
   37POPC   CN1 1873   5.319   4.171   1.220  0.4226  0.3133 -0.0327
   37POPC   CN2 1874   5.179   4.356   1.155  0.2993  0.0617  0.8191
   37POPC   CN3 1875   5.211   4.309   1.381  0.1855 -0.2364 -0.0031
   37POPC   NTM 1876   5.196   4.245   1.249 -0.0505 -0.5460  0.1735
   37POPC    CA 1877   5.092   4.142   1.231 -0.5790 -0.0069  0.0773
   37POPC    CB 1878   4.958   4.162   1.300 -0.2216 -0.6011  0.9701
   37POPC    OA 1879   4.884   4.276   1.254  0.9443 -0.1309  0.2219
   37POPC     P 1880   4.750   4.287   1.343  0.3621 -0.0861 -0.6508
   37POPC    OB 1881   4.704   4.150   1.371  0.2329  0.2280  0.7431
   37POPC    OC 1882   4.654   4.394   1.307  0.2323  0.0562  0.1038
   37POPC    OD 1883   4.811   4.338   1.483 -0.4419 -0.1374 -0.2743
   37POPC    CC 1884   4.765   4.265   1.597 -0.3344  0.3594  0.0917
   37POPC    CD 1885   4.839   4.310   1.723 -0.4765 -0.2556  0.4013
   37POPC    OE 1886   4.830   4.214   1.828 -0.4918 -0.0327  0.6061
   37POPC   C1A 1887   4.903   4.103   1.830  0.5264  0.6108 -0.0754
   37POPC    OF 1888   4.944   4.057   1.723  0.0039  0.1095 -0.0657
   37POPC   C1B 1889   4.898   4.039   1.963  0.0966  0.3147 -0.2333
   37POPC   C1C 1890   5.026   4.062   2.042 -0.4241  0.5615  0.5555
   37POPC   C1D 1891   5.046   3.982   2.172  0.1232  0.1828  0.2481
   37POPC   C1E 1892   5.190   4.014   2.210  0.0939  0.4096  0.1724
   37POPC   C1F 1893   5.242   3.947   2.338  0.1203  0.0521 -0.0245
   37POPC   C1G 1894   5.371   4.005   2.396 -0.1920  0.3054  0.4225
   37POPC   C1H 1895   5.356   4.148   2.447  0.0052  0.5296 -0.1402
   37POPC   C1I 1896   5.489   4.177   2.516  0.2316 -0.0529 -0.3347
   37POPC   C1J 1897   5.518   4.278   2.597 -0.5722 -0.4429  0.4576
   37POPC   C1K 1898   5.410   4.378   2.639 -0.1646  0.1853  0.0363
   37POPC   C1L 1899   5.489   4.505   2.669  0.0468 -0.0047  0.2880
   37POPC   C1M 1900   5.387   4.618   2.687  0.1032  0.1120 -0.1212
   37POPC   C1N 1901   5.471   4.743   2.711  0.3632 -0.1587  0.3941
   37POPC   C1O 1902   5.374   4.862   2.711  0.4570 -0.0830 -0.0264
   37POPC   C1P 1903   5.448   4.995   2.695  0.5337 -0.1746 -0.4483
   37POPC   C1Q 1904   5.346   5.109   2.693  0.0041 -0.6452 -0.2752
   37POPC   C1R 1905   5.294   5.129   2.550 -0.0253  0.1187 -0.1600
   37POPC    CE 1906   4.791   4.454   1.744  0.1881  0.0641 -0.2187
   37POPC    OG 1907   4.850   4.532   1.848 -0.4401  0.0828  0.1306
   37POPC   C2A 1908   4.903   4.651   1.823  0.1845 -0.2584 -0.1939
   37POPC    OH 1909   4.883   4.702   1.712  0.1485 -0.0593 -0.0969
   37POPC   C2B 1910   4.957   4.716   1.945 -0.4827 -0.2360  0.0931
   37POPC   C2C 1911   4.902   4.856   1.972  0.3083  0.2498 -0.7524
   37POPC   C2D 1912   4.998   4.916   2.075 -0.6079 -0.1945  0.3729
   37POPC   C2E 1913   4.964   5.063   2.100 -0.6416 -0.1289 -0.0637
   37POPC   C2F 1914   5.038   5.127   2.218 -0.2461  0.3558 -0.5691
   37POPC   C2G 1915   4.969   5.257   2.261 -0.7419 -0.1603  0.2106
   37POPC   C2H 1916   4.838   5.229   2.336 -0.8053 -0.3083  0.0440
   37POPC   C2I 1917   4.856   5.171   2.476  0.2822 -0.7056 -0.2422
   37POPC   C2J 1918   4.731   5.097   2.524  0.1539 -0.2051  0.2080
   37POPC   C2K 1919   4.706   4.971   2.441 -0.0423  0.0695 -0.1514
   37POPC   C2L 1920   4.796   4.854   2.480  0.3841  0.4929  0.1571
   37POPC   C2M 1921   4.741   4.790   2.608 -0.0436  0.4771 -0.0318
   37POPC   C2N 1922   4.807   4.659   2.651 -0.1706  0.3922 -0.0955
   37POPC   C2O 1923   4.955   4.678   2.682 -0.1695  0.0590  0.1101
   37POPC   C2P 1924   5.012   4.554   2.752  0.1570 -0.0054 -0.2635
   38POPC   CN1 1925   1.352   5.797   0.940  0.1079  0.2169 -0.8986
   38POPC   CN2 1926   1.440   5.641   1.107  0.0687 -0.3522 -0.5414
   38POPC   CN3 1927   1.528   5.853   1.083  0.1110  0.4180 -0.2601
   38POPC   NTM 1928   1.472   5.742   1.005 -0.3263  0.4016  0.0760
   38POPC    CA 1929   1.560   5.696   0.897  0.2563  0.5191  0.4993
   38POPC    CB 1930   1.641   5.792   0.810 -0.1120  0.0159 -0.4104
   38POPC    OA 1931   1.564   5.895   0.746  0.0220  0.4202  0.0705
   38POPC     P 1932   1.656   6.008   0.679  0.1816  0.2171 -0.0526
   38POPC    OB 1933   1.586   6.093   0.579  0.7610  0.4151 -0.2923
   38POPC    OC 1934   1.793   5.955   0.667  0.2658  0.3698  0.2313
   38POPC    OD 1935   1.650   6.088   0.818 -0.0718  0.0819  0.0151
   38POPC    CC 1936   1.541   6.180   0.822 -0.1275  0.0041  0.3025
   38POPC    CD 1937   1.482   6.195   0.963 -0.1850 -0.2128  0.3019
   38POPC    OE 1938   1.347   6.236   0.989 -0.0013  0.3318  0.4069
   38POPC   C1A 1939   1.264   6.163   1.063  0.0419 -0.9196 -0.7293
   38POPC    OF 1940   1.297   6.058   1.117 -0.2254 -0.4915  0.2831
   38POPC   C1B 1941   1.124   6.213   1.056  0.1492 -0.4474  0.3091
   38POPC   C1C 1942   1.022   6.150   1.150 -0.2297 -0.5956 -0.1943
   38POPC   C1D 1943   0.883   6.207   1.123 -0.0994 -0.0799  0.1963
   38POPC   C1E 1944   0.793   6.148   1.232 -0.0215 -0.3580  0.1097
   38POPC   C1F 1945   0.834   6.209   1.366  0.2844 -0.3433  0.0116
   38POPC   C1G 1946   0.732   6.170   1.473  0.0230 -0.5882 -0.3282
   38POPC   C1H 1947   0.743   6.248   1.604  0.2006 -0.1112 -0.6268
   38POPC   C1I 1948   0.859   6.194   1.688 -0.1099  0.1117 -0.0488
   38POPC   C1J 1949   0.882   6.247   1.807 -0.1539 -0.0787  0.0452
   38POPC   C1K 1950   0.781   6.340   1.875  0.2016  0.0966  0.3418
   38POPC   C1L 1951   0.695   6.278   1.985 -0.3347  0.3085  0.0447
   38POPC   C1M 1952   0.786   6.226   2.096 -0.0909  0.0370 -0.2810
   38POPC   C1N 1953   0.705   6.184   2.219  0.0786  0.3221 -0.0699
   38POPC   C1O 1954   0.784   6.111   2.327  0.0114 -0.1658 -0.3499
   38POPC   C1P 1955   0.689   6.081   2.444 -0.1345 -0.4696 -0.5447
   38POPC   C1Q 1956   0.745   5.997   2.559 -0.2334  0.1323 -0.0534
   38POPC   C1R 1957   0.832   6.084   2.650 -0.4147  0.0712  0.1780
   38POPC    CE 1958   1.585   6.272   1.044  0.3094 -0.5868  0.0399
   38POPC    OG 1959   1.580   6.302   1.184  0.0400 -0.0204 -0.0841
   38POPC   C2A 1960   1.610   6.204   1.270  0.2465  0.0458 -0.0801
   38POPC    OH 1961   1.660   6.095   1.243 -0.3470 -0.2391 -0.0404
   38POPC   C2B 1962   1.587   6.243   1.411 -0.2042 -0.5803  0.0235
   38POPC   C2C 1963   1.721   6.268   1.481 -0.4050  0.3518  0.0958
   38POPC   C2D 1964   1.716   6.318   1.625 -0.3002  0.2759  0.1261
   38POPC   C2E 1965   1.803   6.230   1.715  0.2642  0.0734 -0.6116
   38POPC   C2F 1966   1.789   6.279   1.859  0.3367 -0.0700 -0.5556
   38POPC   C2G 1967   1.853   0.072   1.900  0.0231 -0.1230  0.1382
   38POPC   C2H 1968   1.826   0.104   2.047  0.7180 -0.0966  0.2666
   38POPC   C2I 1969   1.908   0.019   2.144 -0.1531 -0.2210  0.9039
   38POPC   C2J 1970   1.846   0.042   2.282 -0.3900 -0.0501  0.7687
   38POPC   C2K 1971   1.885   6.262   2.367  0.1474 -0.2578  0.2361
   38POPC   C2L 1972   1.805   6.275   2.497 -0.0286 -0.1877  0.1222
   38POPC   C2M 1973   1.868   0.034   2.595  0.2830 -0.4469  0.1865
   38POPC   C2N 1974   1.785   0.052   2.723 -0.2263  0.1433 -0.2226
   38POPC   C2O 1975   1.764   6.260   2.797 -0.1655 -0.1687 -0.7507
   38POPC   C2P 1976   1.893   6.183   2.829 -0.0732  0.0618 -0.5628
   39POPC   CN1 1977   5.336   0.673   1.221 -0.3528 -0.0349  0.1069
   39POPC   CN2 1978   5.346   0.445   1.272 -0.0976 -0.5684  0.0739
   39POPC   CN3 1979   5.547   0.581   1.307 -0.5817  0.3238  0.3693
   39POPC   NTM 1980   5.427   0.558   1.225 -0.5039 -0.1453  0.3863
   39POPC    CA 1981   5.479   0.523   1.092 -0.5484  0.4833  0.2007
   39POPC    CB 1982   5.421   0.580   0.962 -0.2108  0.4217  0.0201
   39POPC    OA 1983   5.282   0.551   0.948 -0.2924  0.6211  0.3888
   39POPC     P 1984   5.254   0.418   0.862  0.3756  0.6030  0.1942
   39POPC    OB 1985   5.372   0.394   0.777  0.2433  0.1008  0.1485
   39POPC    OC 1986   5.117   0.428   0.808  0.2686 -0.7568  0.1768
   39POPC    OD 1987   5.263   0.305   0.977  0.2951  0.6002  0.1983
   39POPC    CC 1988   5.232   0.180   0.914  1.3107  0.4024  0.0735
   39POPC    CD 1989   5.233   0.051   0.996  0.0851  0.5221  0.2876
   39POPC    OE 1990   5.150   6.290   0.938  0.0131  0.3763  0.6463
   39POPC   C1A 1991   5.196   6.168   0.913 -0.3546  0.3994 -0.1687
   39POPC    OF 1992   5.303   6.123   0.954 -0.3870  0.1791 -0.3284
   39POPC   C1B 1993   5.096   6.083   0.845  0.3544 -0.2284 -0.4416
   39POPC   C1C 1994   5.041   5.961   0.919  0.1918 -0.0256 -0.2263
   39POPC   C1D 1995   5.123   5.832   0.922  0.2091 -0.0112 -0.0897
   39POPC   C1E 1996   5.048   5.723   1.000  0.2864 -0.0373 -0.0514
   39POPC   C1F 1997   5.035   5.741   1.151 -0.0202  0.2803 -0.1169
   39POPC   C1G 1998   5.167   5.765   1.224 -0.1204 -0.7938  0.4244
   39POPC   C1H 1999   5.142   5.854   1.346 -0.2762 -0.0751 -0.1252
   39POPC   C1I 2000   5.112   5.782   1.478  0.0983 -0.0108 -0.0011
   39POPC   C1J 2001   5.163   5.821   1.594 -0.6584  0.0610  0.3126
   39POPC   C1K 2002   5.261   5.938   1.592  0.2261 -0.6846 -0.4531
   39POPC   C1L 2003   5.321   5.961   1.732 -0.1191  0.3483 -0.4666
   39POPC   C1M 2004   5.426   6.072   1.740 -0.1803  0.3786 -0.0565
   39POPC   C1N 2005   5.458   6.133   1.876 -0.0829  0.2387 -0.0168
   39POPC   C1O 2006   5.522   6.271   1.873  0.5101 -0.0303  0.1386
   39POPC   C1P 2007   5.533   0.009   2.005 -0.7345  0.6241 -0.1292
   39POPC   C1Q 2008   5.634   6.285   2.101 -0.8207  0.1238 -0.3691
   39POPC   C1R 2009   5.778   6.312   2.057 -0.8746 -0.1763 -0.7298
   39POPC    CE 2010   5.179   0.102   1.130 -1.2691  0.5452 -0.2555
   39POPC    OG 2011   5.172   0.006   1.235  0.3493  0.5360 -0.1314
   39POPC   C2A 2012   5.163   0.060   1.356 -0.0270  0.1433  0.0214
   39POPC    OH 2013   5.172   0.182   1.372  0.1503  0.0854  0.3773
   39POPC   C2B 2014   5.119   6.316   1.470 -0.4957 -0.0756 -0.3196
   39POPC   C2C 2015   4.997   0.050   1.524 -0.5098 -0.4392  0.1551
   39POPC   C2D 2016   4.931   6.329   1.648 -0.7883  0.0942  0.2731
   39POPC   C2E 2017   4.890   6.182   1.644  0.3314 -0.2254  0.2060
   39POPC   C2F 2018   4.850   6.154   1.789  0.4068  0.0112  0.2725
   39POPC   C2G 2019   4.811   6.006   1.796  0.0235  0.0764 -0.3782
   39POPC   C2H 2020   4.760   5.956   1.932  0.3397  0.1436 -0.2329
   39POPC   C2I 2021   4.870   5.978   2.036 -0.1491  0.1812  0.2779
   39POPC   C2J 2022   4.807   5.938   2.170 -0.4070  0.3870  0.2202
   39POPC   C2K 2023   4.910   5.875   2.263 -0.5045 -0.2606 -0.1063
   39POPC   C2L 2024   4.872   5.890   2.411 -0.2683  0.2859 -0.1006
   39POPC   C2M 2025   4.975   5.811   2.493 -0.6490  0.2239  0.3205
   39POPC   C2N 2026   4.966   5.659   2.480 -0.2033  0.2188  0.0530
   39POPC   C2O 2027   5.076   5.600   2.569  0.2639  0.8305 -0.1035
   39POPC   C2P 2028   5.086   5.447   2.560 -0.6412  0.7427  0.2695
   40POPC   CN1 2029   0.090   1.047   0.938 -0.8282 -0.3358  0.1993
   40POPC   CN2 2030   6.177   1.103   0.933 -0.1659 -0.2393  0.0218
   40POPC   CN3 2031   0.045   1.263   0.858  0.0149 -0.4986  0.1934
   40POPC   NTM 2032   6.310   1.161   0.954 -0.3506 -0.0039  0.5451
   40POPC    CA 2033   0.019   1.220   1.087  0.1283  0.0568  0.4526
   40POPC    CB 2034   6.240   1.337   1.130 -0.2913 -0.1107  0.0447
   40POPC    OA 2035   6.101   1.302   1.133 -0.2177 -0.4117 -0.0292
   40POPC     P 2036   6.019   1.431   1.183 -0.0789 -0.2246 -0.2758
   40POPC    OB 2037   5.883   1.373   1.180 -0.0953 -0.1987 -0.0364
   40POPC    OC 2038   6.055   1.551   1.105 -0.2638  0.2649  0.3809
   40POPC    OD 2039   6.059   1.450   1.338 -0.0296 -0.1788 -0.2941
   40POPC    CC 2040   5.957   1.421   1.434  0.0821  0.2575 -0.0385
   40POPC    CD 2041   6.011   1.383   1.572  0.1032 -0.5070 -0.2532
   40POPC    OE 2042   5.919   1.323   1.665  0.2391  0.2613  0.3880
   40POPC   C1A 2043   5.852   1.209   1.652  0.3354  0.2327  0.1277
   40POPC    OF 2044   5.881   1.136   1.557  0.1112 -0.0460  0.2717
   40POPC   C1B 2045   5.761   1.176   1.764 -0.0915  1.0076  0.0095
   40POPC   C1C 2046   5.755   1.026   1.793  0.7302  0.9539 -0.0814
   40POPC   C1D 2047   5.897   0.995   1.843  0.4280  0.1511  0.2972
   40POPC   C1E 2048   5.916   0.844   1.858  0.5126  0.1599  0.2765
   40POPC   C1F 2049   5.961   0.774   1.730 -0.1418  0.3651 -0.0687
   40POPC   C1G 2050   5.952   0.622   1.748  0.1961  0.3528 -0.0047
   40POPC   C1H 2051   6.055   0.568   1.848  0.1770 -0.4602 -0.4167
   40POPC   C1I 2052   6.186   0.555   1.770  0.3226  0.1689 -0.2810
   40POPC   C1J 2053   6.282   0.469   1.803  0.2972  0.2920  0.1212
   40POPC   C1K 2054   6.269   0.380   1.926  0.3150  0.6934  0.4177
   40POPC   C1L 2055   6.276   0.229   1.902 -0.1127  0.7210  0.0962
   40POPC   C1M 2056   6.275   0.145   2.031 -0.2774 -0.1365 -0.4545
   40POPC   C1N 2057   6.140   0.152   2.101  0.0017 -0.0491  0.0757
   40POPC   C1O 2058   6.148   0.070   2.231 -0.3725 -0.0237  0.1174
   40POPC   C1P 2059   6.039   0.128   2.321 -0.5026  0.2929 -0.2396
   40POPC   C1Q 2060   6.061   0.069   2.460 -0.1337  0.1440 -0.3596
   40POPC   C1R 2061   5.999   0.157   2.569  0.4378  0.2053 -0.0796
   40POPC    CE 2062   6.067   1.517   1.620 -0.5757 -0.2904 -0.0597
   40POPC    OG 2063   5.974   1.622   1.649 -0.0504  0.1579  0.0204
   40POPC   C2A 2064   6.022   1.738   1.693  0.3905  0.1613 -0.4562
   40POPC    OH 2065   6.134   1.774   1.659  0.5271  0.5452  0.3695
   40POPC   C2B 2066   5.914   1.818   1.755  0.3708  0.0837 -0.3893
   40POPC   C2C 2067   5.960   1.898   1.877  0.3672 -0.3484 -0.1051
   40POPC   C2D 2068   6.020   1.812   1.989 -0.7659  0.0836  0.8580
   40POPC   C2E 2069   6.029   1.883   2.124 -0.6180  0.7127  0.5217
   40POPC   C2F 2070   6.173   1.925   2.151 -0.5017  0.4918  0.2550
   40POPC   C2G 2071   6.188   1.937   2.303 -0.5301 -0.1723  0.3116
   40POPC   C2H 2072   0.018   1.945   2.366 -0.3369 -0.3111 -0.0976
   40POPC   C2I 2073   0.003   1.939   2.518  0.7185  0.2107  0.0343
   40POPC   C2J 2074   6.247   1.812   2.573  0.3404  0.3162 -0.1694
   40POPC   C2K 2075   0.022   1.692   2.533  0.2379  0.0587  0.3858
   40POPC   C2L 2076   6.262   1.565   2.582 -0.0581  0.1572  0.2202
   40POPC   C2M 2077   6.284   1.449   2.484 -0.2060  0.3558 -0.0490
   40POPC   C2N 2078   6.188   1.459   2.366  0.1200 -0.1994 -0.3664
   40POPC   C2O 2079   6.215   1.346   2.267  0.6778 -0.1618 -0.2593
   40POPC   C2P 2080   6.166   1.367   2.123  0.6429  0.0866 -0.2109
   41POPC   CN1 2081   1.066   4.588   1.262  0.4885  0.0126 -0.5783
   41POPC   CN2 2082   0.881   4.465   1.177 -0.2849 -0.4791  0.3489
   41POPC   CN3 2083   1.101   4.382   1.161 -0.0569  0.2387  0.0200
   41POPC   NTM 2084   1.020   4.505   1.150 -0.4926 -0.0603 -0.1314
   41POPC    CA 2085   1.040   4.570   1.020  0.1007  0.2212  0.0945
   41POPC    CB 2086   0.974   4.706   0.997  0.0784  0.2614  0.3972
   41POPC    OA 2087   0.836   4.724   1.028 -0.0715  0.0569 -0.1448
   41POPC     P 2088   0.794   4.878   1.006  0.3616  0.2167  0.1414
   41POPC    OB 2089   0.650   4.887   1.041  0.4264 -0.0229  0.4782
   41POPC    OC 2090   0.852   4.925   0.878 -0.0561 -0.3207 -0.2494
   41POPC    OD 2091   0.881   4.938   1.128 -0.1129  0.4257  0.3807
   41POPC    CC 2092   0.809   5.040   1.198 -0.5757  0.1053  0.3783
   41POPC    CD 2093   0.871   5.074   1.334  0.0953  0.2149  0.0485
   41POPC    OE 2094   0.784   5.149   1.419  0.0660  0.2551 -0.0173
   41POPC   C1A 2095   0.691   5.086   1.490  0.0293 -0.1347 -0.4033
   41POPC    OF 2096   0.647   4.975   1.459 -0.0922 -0.3362  0.4808
   41POPC   C1B 2097   0.614   5.170   1.585  0.1053 -0.1856 -0.2975
   41POPC   C1C 2098   0.676   5.167   1.725  0.3378 -0.3518 -0.4029
   41POPC   C1D 2099   0.826   5.193   1.739  0.2739 -0.2143  0.0442
   41POPC   C1E 2100   0.877   5.212   1.882 -0.6820 -0.0031  0.3650
   41POPC   C1F 2101   0.860   5.083   1.962  0.4335 -0.1994  0.3132
   41POPC   C1G 2102   0.931   5.096   2.097  0.6054  0.0189  0.2021
   41POPC   C1H 2103   0.934   4.970   2.184 -0.1596 -0.1746 -0.0450
   41POPC   C1I 2104   1.037   4.997   2.294 -0.0562 -0.2295 -0.1279
   41POPC   C1J 2105   1.096   4.891   2.348 -0.3737 -0.1817  0.3204
   41POPC   C1K 2106   1.060   4.753   2.294  0.1837 -0.1217 -0.2148
   41POPC   C1L 2107   1.055   4.658   2.414 -0.2479 -0.7219 -0.6982
   41POPC   C1M 2108   1.182   4.619   2.490 -0.4698  0.0510  0.0950
   41POPC   C1N 2109   1.150   4.525   2.606  0.3233 -0.2421  0.0852
   41POPC   C1O 2110   1.102   4.613   2.721  0.1505  0.2875 -0.3864
   41POPC   C1P 2111   1.206   4.718   2.763 -0.1200  0.4882 -0.2119
   41POPC   C1Q 2112   1.168   4.775   2.900 -0.3808 -0.2509  0.0279
   41POPC   C1R 2113   1.288   4.798   2.991 -0.8457  0.3856  0.4883
   41POPC    CE 2114   1.015   5.115   1.301  0.1065  0.0658 -0.0872
   41POPC    OG 2115   1.087   5.178   1.407  0.5854 -0.5041 -0.0715
   41POPC   C2A 2116   1.177   5.270   1.372 -0.2654  0.3396 -0.0713
   41POPC    OH 2117   1.241   5.252   1.268 -0.0030 -0.2693  0.1913
   41POPC   C2B 2118   1.210   5.373   1.472 -0.5384 -0.0809  0.4597
   41POPC   C2C 2119   1.294   5.326   1.591 -0.2432 -0.0916  0.2504
   41POPC   C2D 2120   1.318   5.435   1.697  0.2119  0.0748 -0.0226
   41POPC   C2E 2121   1.196   5.476   1.780 -0.0608 -0.2707 -0.2489
   41POPC   C2F 2122   1.228   5.593   1.873 -0.0763 -0.4854  0.0277
   41POPC   C2G 2123   1.102   5.668   1.916  0.2096 -0.0299  0.0731
   41POPC   C2H 2124   1.151   5.798   1.980 -0.2823  0.0839  0.2232
   41POPC   C2I 2125   1.027   5.858   2.047 -0.2202  0.4308  0.0294
   41POPC   C2J 2126   1.055   5.994   2.113  0.1122  0.3030  0.1542
   41POPC   C2K 2127   1.155   5.979   2.228  0.3528  0.1704 -0.0711
   41POPC   C2L 2128   1.160   6.113   2.301  0.4318  0.4060 -0.5070
   41POPC   C2M 2129   1.272   6.111   2.405  0.2201  0.0975 -0.2842
   41POPC   C2N 2130   1.265   6.220   2.512 -0.5396 -0.7456  0.5440
   41POPC   C2O 2131   1.387   6.226   2.605 -0.4202  0.1635  0.3408
   41POPC   C2P 2132   1.401   6.094   2.682  0.2846  0.0233 -0.0167
   42POPC   CN1 2133   2.621   1.199   1.049  0.2990 -0.1249 -0.2728
   42POPC   CN2 2134   2.659   1.251   1.272  0.5142  0.4300  0.4638
   42POPC   CN3 2135   2.653   1.422   1.093 -0.3533 -0.3238 -0.6560
   42POPC   NTM 2136   2.699   1.289   1.136 -0.2205 -0.0378  0.1095
   42POPC    CA 2137   2.843   1.275   1.112 -0.2088  0.5505 -0.1837
   42POPC    CB 2138   2.952   1.304   1.216 -0.2231 -0.4474  0.1252
   42POPC    OA 2139   2.937   1.426   1.288  0.0226 -0.3697  0.0465
   42POPC     P 2140   3.067   1.428   1.383  0.3399  0.0003 -0.3937
   42POPC    OB 2141   3.168   1.473   1.285  0.1194  0.2196 -0.5221
   42POPC    OC 2142   3.074   1.297   1.451 -0.6281 -0.0377 -0.3481
   42POPC    OD 2143   3.015   1.548   1.477 -0.0640 -0.3552 -0.1592
   42POPC    CC 2144   2.925   1.495   1.575  0.0016 -0.3301 -0.0847
   42POPC    CD 2145   2.840   1.604   1.640  0.0240 -0.4481  0.1431
   42POPC    OE 2146   2.768   1.563   1.756  0.0376 -0.2523  0.2210
   42POPC   C1A 2147   2.821   1.598   1.873  0.2943 -0.3616  0.1373
   42POPC    OF 2148   2.880   1.705   1.892 -0.4643  0.0117  0.4398
   42POPC   C1B 2149   2.757   1.510   1.973  0.2221 -0.0081  0.4062
   42POPC   C1C 2150   2.854   1.409   2.035  0.6652 -0.1333 -0.4643
   42POPC   C1D 2151   2.973   1.467   2.111  0.1519 -0.2943  0.4891
   42POPC   C1E 2152   2.948   1.559   2.230  0.5354  0.4254  0.0220
   42POPC   C1F 2153   2.884   1.489   2.350  0.0083  0.5808 -0.1703
   42POPC   C1G 2154   2.920   1.565   2.478  0.1870 -0.0814  0.1802
   42POPC   C1H 2155   2.836   1.545   2.604  0.1114 -0.3867  0.0830
   42POPC   C1I 2156   2.696   1.606   2.599  0.1648 -0.2855 -0.1885
   42POPC   C1J 2157   2.624   1.629   2.708  0.3723  0.3572 -0.1862
   42POPC   C1K 2158   2.685   1.604   2.846  0.1200 -0.3926 -0.2099
   42POPC   C1L 2159   2.566   1.560   2.932  0.0516 -0.1075 -0.1597
   42POPC   C1M 2160   2.486   1.681   2.984 -0.0426 -0.3507  0.2673
   42POPC   C1N 2161   2.377   1.632   3.079  0.0391 -0.3600  0.3573
   42POPC   C1O 2162   2.276   1.742   3.116  0.4635  0.1812 -0.0716
   42POPC   C1P 2163   2.212   1.798   2.989 -0.6109 -0.3149  0.2469
   42POPC   C1Q 2164   2.115   1.915   3.004  0.1657  0.3446  0.1836
   42POPC   C1R 2165   2.175   2.025   3.091  0.1190 -0.0119  0.6694
   42POPC    CE 2166   2.748   1.656   1.529  0.2336 -0.1539  0.1042
   42POPC    OG 2167   2.644   1.568   1.486 -0.1699  0.3568  0.0254
   42POPC   C2A 2168   2.522   1.608   1.519 -0.2923  0.0243 -0.0158
   42POPC    OH 2169   2.504   1.714   1.580  0.6381 -0.0085  0.3272
   42POPC   C2B 2170   2.423   1.505   1.480  0.3542 -0.3729 -0.6353
   42POPC   C2C 2171   2.426   1.381   1.569  0.3915  0.0734 -0.0041
   42POPC   C2D 2172   2.391   1.430   1.710  0.6605 -0.2571  0.1790
   42POPC   C2E 2173   2.399   1.324   1.820  0.0629 -0.4457  0.0440
   42POPC   C2F 2174   2.358   1.378   1.956  0.3845 -0.1396  0.0230
   42POPC   C2G 2175   2.392   1.275   2.065  0.1509  0.1123  0.3370
   42POPC   C2H 2176   2.378   1.333   2.206  0.3552  0.4876  0.2053
   42POPC   C2I 2177   2.406   1.229   2.315 -0.1980 -0.0587 -0.1676
   42POPC   C2J 2178   2.412   1.322   2.436  0.3845 -0.3385  0.0190
   42POPC   C2K 2179   2.419   1.243   2.567 -0.3024 -0.3771  0.0314
   42POPC   C2L 2180   2.527   1.136   2.577  0.1024  0.0360  0.0892
   42POPC   C2M 2181   2.671   1.188   2.582  0.1964 -0.1169 -0.8092
   42POPC   C2N 2182   2.779   1.080   2.585 -0.1306 -0.4296 -0.2615
   42POPC   C2O 2183   2.923   1.127   2.566 -0.1326 -0.2478  0.1508
   42POPC   C2P 2184   3.006   1.003   2.602  0.1419 -0.2370 -0.4373
   43POPC   CN1 2185   0.778   5.222   0.619 -0.3974  0.2903  0.5237
   43POPC   CN2 2186   0.766   5.318   0.822 -0.0974  0.6275 -0.1443
   43POPC   CN3 2187   0.925   5.407   0.671 -0.7116  0.1873 -0.1916
   43POPC   NTM 2188   0.866   5.282   0.720  0.1057 -0.0216  0.2755
   43POPC    CA 2189   0.959   5.187   0.782 -0.1873 -0.3765  0.1686
   43POPC    CB 2190   1.072   5.231   0.875 -0.2006 -0.1942  0.0968
   43POPC    OA 2191   1.029   5.293   0.996 -0.4460  0.2031 -0.1875
   43POPC     P 2192   1.096   5.435   1.031 -0.3040  0.0231  0.2836
   43POPC    OB 2193   1.221   5.458   0.955 -0.4828  0.3609  0.0884
   43POPC    OC 2194   1.062   5.484   1.166 -0.4380  0.0970  0.2227
   43POPC    OD 2195   1.001   5.521   0.934  0.0128 -0.0053 -0.0547
   43POPC    CC 2196   0.936   5.639   0.983  0.5562  0.2834 -0.0171
   43POPC    CD 2197   0.907   5.745   0.876 -0.0310 -0.0135 -0.1542
   43POPC    OE 2198   1.020   5.801   0.809  0.2079 -0.0824  0.1876
   43POPC   C1A 2199   1.018   5.796   0.677  0.3749  0.3035  0.1693
   43POPC    OF 2200   0.919   5.743   0.627  0.7772 -0.9649  0.6809
   43POPC   C1B 2201   1.118   5.867   0.594  0.1766  0.1826 -0.1763
   43POPC   C1C 2202   1.064   6.005   0.560 -0.0190  0.0392 -0.4503
   43POPC   C1D 2203   1.167   6.097   0.494 -0.2063  0.6117  0.0452
   43POPC   C1E 2204   1.213   6.216   0.578 -0.1294  0.4623  0.2159
   43POPC   C1F 2205   1.103   6.308   0.632 -0.2752  0.4081  0.0128
   43POPC   C1G 2206   1.132   0.097   0.709  0.4338  0.0116  0.4197
   43POPC   C1H 2207   1.001   0.129   0.781  0.0179 -0.5724 -0.0720
   43POPC   C1I 2208   1.016   0.262   0.855 -0.2589 -0.7023  0.2158
   43POPC   C1J 2209   0.905   0.334   0.869  0.2779  0.1715  0.0317
   43POPC   C1K 2210   0.768   0.287   0.817  0.5327 -0.6924  0.1216
   43POPC   C1L 2211   0.646   0.317   0.905  0.1316  0.2193 -0.7232
   43POPC   C1M 2212   0.639   0.222   1.025 -0.1344  0.6102 -0.4295
   43POPC   C1N 2213   0.528   0.263   1.122 -0.2166  0.1384 -0.3229
   43POPC   C1O 2214   0.501   0.157   1.229  0.4013  0.0552 -0.2452
   43POPC   C1P 2215   0.439   0.032   1.165 -0.0784  0.1218  0.0850
   43POPC   C1Q 2216   0.294   0.062   1.127  0.0432  0.2947 -0.2448
   43POPC   C1R 2217   0.220   6.274   1.087 -0.7058  0.6403  0.0046
   43POPC    CE 2218   0.824   5.851   0.948  0.6028  0.1511  0.3414
   43POPC    OG 2219   0.722   5.798   1.033  0.1661  0.6600  0.1434
   43POPC   C2A 2220   0.595   5.821   1.000  0.1434  0.1841 -0.1198
   43POPC    OH 2221   0.566   5.889   0.902 -0.6331 -0.5716 -0.4302
   43POPC   C2B 2222   0.492   5.791   1.103 -0.0437 -0.1213 -0.3947
   43POPC   C2C 2223   0.495   5.898   1.212 -0.2799 -0.1220 -0.3870
   43POPC   C2D 2224   0.371   5.883   1.299 -0.0923  0.1237 -0.0753
   43POPC   C2E 2225   0.391   5.760   1.389 -0.0041  0.2664  0.1004
   43POPC   C2F 2226   0.322   5.764   1.526  0.2623 -0.0141  0.2424
   43POPC   C2G 2227   0.400   5.698   1.640  0.2379  0.1137  0.3331
   43POPC   C2H 2228   0.538   5.765   1.649  0.1750  0.3380 -0.2821
   43POPC   C2I 2229   0.631   5.696   1.749 -0.0064  0.2302 -0.1862
   43POPC   C2J 2230   0.573   5.667   1.888 -0.0241  0.0928 -0.2225
   43POPC   C2K 2231   0.681   5.593   1.968  0.0078  0.5915  0.1948
   43POPC   C2L 2232   0.656   5.563   2.116  0.3694  0.4311  0.2233
   43POPC   C2M 2233   0.744   5.460   2.188 -0.0450 -0.1190 -0.0437
   43POPC   C2N 2234   0.716   5.455   2.339  0.5428 -0.6277  0.0516
   43POPC   C2O 2235   0.741   5.311   2.385  0.1756 -0.6712  0.1217
   43POPC   C2P 2236   0.684   5.299   2.526 -0.2125  0.0367  0.0296
   44POPC   CN1 2237   4.108   4.034   1.266  0.1499  0.1050  0.0012
   44POPC   CN2 2238   4.041   4.259   1.227  1.0855  0.2030  0.9621
   44POPC   CN3 2239   3.932   4.130   1.386  0.0066 -0.3002 -0.3003
   44POPC   NTM 2240   3.992   4.123   1.252  0.2891  0.2548 -0.2022
   44POPC    CA 2241   3.900   4.089   1.143 -0.2188  0.3972  0.1779
   44POPC    CB 2242   3.835   3.951   1.151  0.1525  0.2226  0.2151
   44POPC    OA 2243   3.759   3.933   1.271  0.3069  0.0797  0.2935
   44POPC     P 2244   3.642   3.824   1.252  0.2361  0.1228  0.4779
   44POPC    OB 2245   3.714   3.707   1.198 -0.2072  0.0873 -0.0411
   44POPC    OC 2246   3.552   3.893   1.157  0.5234  0.1563  0.2284
   44POPC    OD 2247   3.571   3.782   1.390 -0.2073  0.0132  0.2194
   44POPC    CC 2248   3.670   3.740   1.484 -0.3211  0.1869  0.4177
   44POPC    CD 2249   3.761   3.821   1.577  0.1743  0.3771 -0.2273
   44POPC    OE 2250   3.863   3.740   1.636 -0.1166  0.1422 -0.0494
   44POPC   C1A 2251   3.980   3.798   1.663 -0.2063  0.2145  0.1917
   44POPC    OF 2252   4.009   3.906   1.613 -0.2222  0.1200 -0.0226
   44POPC   C1B 2253   4.050   3.718   1.766 -0.3145 -0.1610 -0.0239
   44POPC   C1C 2254   4.197   3.749   1.793 -0.4351  0.1855  0.2386
   44POPC   C1D 2255   4.224   3.724   1.941 -0.0750  0.4374  0.2183
   44POPC   C1E 2256   4.374   3.738   1.963  0.0354 -0.1522 -0.1414
   44POPC   C1F 2257   4.459   3.615   1.931  0.0299 -0.0981 -0.3638
   44POPC   C1G 2258   4.604   3.623   1.980 -0.2613 -0.2862  0.5513
   44POPC   C1H 2259   4.602   3.627   2.133 -0.2217 -0.5098  0.5571
   44POPC   C1I 2260   4.744   3.646   2.184 -0.1636  0.0176  0.2047
   44POPC   C1J 2261   4.763   3.699   2.305  0.4733  0.0656  0.0906
   44POPC   C1K 2262   4.635   3.754   2.370  0.2500 -0.4008  0.0514
   44POPC   C1L 2263   4.621   3.737   2.521 -0.4554 -0.2477  0.0071
   44POPC   C1M 2264   4.603   3.592   2.566 -1.4433 -0.3299 -0.6338
   44POPC   C1N 2265   4.556   3.562   2.709  0.4104  0.7161  0.2332
   44POPC   C1O 2266   4.541   3.414   2.744  0.7460  0.4454 -0.7387
   44POPC   C1P 2267   4.510   3.412   2.893 -0.2678 -0.1798 -0.9482
   44POPC   C1Q 2268   4.470   3.267   2.923  0.2359 -0.1585 -0.1308
   44POPC   C1R 2269   4.436   3.253   3.071 -0.0177  0.3505 -0.1380
   44POPC    CE 2270   3.676   3.908   1.669  0.0005 -0.3321  0.2904
   44POPC    OG 2271   3.588   3.837   1.757 -0.1422 -0.3425  0.1378
   44POPC   C2A 2272   3.620   3.854   1.884 -0.2168  0.0678  0.1031
   44POPC    OH 2273   3.720   3.917   1.922  0.1085 -0.0010 -0.6283
   44POPC   C2B 2274   3.539   3.777   1.981  0.2605 -0.0815  0.3922
   44POPC   C2C 2275   3.481   3.860   2.096  0.7175  0.3773  0.2977
   44POPC   C2D 2276   3.437   3.780   2.219  0.4279 -0.4865 -0.3517
   44POPC   C2E 2277   3.405   3.886   2.325 -0.6765 -0.8509 -0.3091
   44POPC   C2F 2278   3.363   3.820   2.457 -0.6329 -0.1600  0.0567
   44POPC   C2G 2279   3.385   3.890   2.591 -0.2450  0.1195 -0.1501
   44POPC   C2H 2280   3.331   3.816   2.714 -0.1409 -0.2228 -0.3069
   44POPC   C2I 2281   3.180   3.836   2.729 -0.0918 -0.0232 -0.0676
   44POPC   C2J 2282   3.115   3.730   2.818 -0.0881  0.1747  0.1732
   44POPC   C2K 2283   2.962   3.734   2.825 -0.0858 -0.0239  0.3433
   44POPC   C2L 2284   2.892   3.605   2.867 -0.4253  0.1198  0.2179
   44POPC   C2M 2285   2.741   3.629   2.872 -0.4943 -0.1986 -0.2802
   44POPC   C2N 2286   2.664   3.512   2.935 -0.2439 -0.1341  0.1497
   44POPC   C2O 2287   2.518   3.545   2.967 -0.4494 -0.4452 -0.4448
   44POPC   C2P 2288   2.512   3.650   3.079  0.1384 -0.3794 -0.4686
   45POPC   CN1 2289   0.272   3.193   1.619 -0.4911  0.6363  0.2336
   45POPC   CN2 2290   0.464   3.312   1.677  0.1935  0.3358  0.1547
   45POPC   CN3 2291   0.288   3.421   1.565  0.3937 -0.0367  0.5950
   45POPC   NTM 2292   0.364   3.296   1.570  0.3012 -0.1134  0.1214
   45POPC    CA 2293   0.424   3.277   1.437 -0.4760  0.3006 -0.2943
   45POPC    CB 2294   0.472   3.137   1.398  0.1234  0.4276 -0.0305
   45POPC    OA 2295   0.563   3.083   1.495 -0.1580  0.3023  0.1663
   45POPC     P 2296   0.607   2.934   1.453 -0.2053  0.1997  0.4785
   45POPC    OB 2297   0.753   2.922   1.434 -0.3292 -0.3553 -0.1512
   45POPC    OC 2298   0.520   2.891   1.341  0.0969  0.4479  0.1445
   45POPC    OD 2299   0.555   2.842   1.574 -0.1321  0.2935  0.5809
   45POPC    CC 2300   0.651   2.789   1.665  0.0317  0.0488  0.2670
   45POPC    CD 2301   0.732   2.884   1.754  0.4081  0.3113 -0.3517
   45POPC    OE 2302   0.830   2.816   1.833  0.1218  0.2562 -0.0434
   45POPC   C1A 2303   0.911   2.898   1.900  0.7289 -0.0175 -0.4326
   45POPC    OF 2304   0.944   3.005   1.847  0.3604  0.6487  0.6542
   45POPC   C1B 2305   0.981   2.822   2.005 -0.2839  0.1148  0.3582
   45POPC   C1C 2306   0.896   2.827   2.132 -0.1649  0.1819  0.4350
   45POPC   C1D 2307   0.873   2.963   2.199 -0.0874  0.2957  0.2328
   45POPC   C1E 2308   0.805   2.940   2.335 -0.1238 -0.1532  0.1412
   45POPC   C1F 2309   0.907   2.867   2.423  0.2557 -0.3068 -0.4187
   45POPC   C1G 2310   0.868   2.874   2.570 -0.2515  0.0600 -0.5682
   45POPC   C1H 2311   0.778   2.756   2.605 -0.6642  0.4478 -0.3110
   45POPC   C1I 2312   0.693   2.779   2.731 -0.0235 -0.3498  0.2722
   45POPC   C1J 2313   0.564   2.748   2.725 -0.1463  0.2155 -0.1236
   45POPC   C1K 2314   0.507   2.705   2.590  0.2126  0.0310 -0.2173
   45POPC   C1L 2315   0.365   2.758   2.569  0.1554  0.1692  0.5115
   45POPC   C1M 2316   0.377   2.909   2.546  0.1820  0.0966  0.0408
   45POPC   C1N 2317   0.243   2.980   2.528 -0.0206 -0.3221 -0.1288
   45POPC   C1O 2318   0.158   2.961   2.654 -0.0737 -0.2710 -0.1571
   45POPC   C1P 2319   0.099   3.096   2.698  0.7568 -0.0482  0.2938
   45POPC   C1Q 2320   0.015   3.071   2.823  0.3324 -0.1307 -0.0055
   45POPC   C1R 2321   6.296   3.209   2.884  0.0820 -0.1637 -0.0469
   45POPC    CE 2322   0.631   2.967   1.833  0.2277 -0.3433  0.1131
   45POPC    OG 2323   0.550   2.889   1.922 -0.2995  0.3119  0.2185
   45POPC   C2A 2324   0.426   2.933   1.941 -0.2301  0.5332  0.1623
   45POPC    OH 2325   0.371   3.017   1.869 -0.0497 -0.1170 -0.7509
   45POPC   C2B 2326   0.375   2.871   2.065  0.0965 -0.1255 -0.0281
   45POPC   C2C 2327   0.239   2.812   2.030 -0.0731  0.3490 -0.1742
   45POPC   C2D 2328   0.196   2.720   2.145  0.1883  0.2587 -0.1501
   45POPC   C2E 2329   0.098   2.615   2.093  0.1044  0.0099  0.5008
   45POPC   C2F 2330   0.172   2.508   2.012 -0.2740 -0.2043  0.4327
   45POPC   C2G 2331   0.081   2.390   1.979  0.2607 -0.4876 -0.0471
   45POPC   C2H 2332   0.156   2.265   1.932 -0.0014 -0.3643 -0.8122
   45POPC   C2I 2333   0.229   2.203   2.051 -0.0168 -0.0177 -0.6212
   45POPC   C2J 2334   0.365   2.144   2.011  0.1810  0.1502 -0.2108
   45POPC   C2K 2335   0.432   2.076   2.130  0.4708 -0.1664 -0.5528
   45POPC   C2L 2336   0.585   2.073   2.128  0.5023  0.4212  0.2058
   45POPC   C2M 2337   0.646   2.014   2.256 -0.0628  0.0673  0.3133
   45POPC   C2N 2338   0.660   1.863   2.239  0.1252  0.1132  0.0604
   45POPC   C2O 2339   0.691   1.782   2.365  0.3439  0.0030 -0.0620
   45POPC   C2P 2340   0.564   1.706   2.402  0.3909 -0.1130 -0.1373
   46POPC   CN1 2341   2.944   2.625   1.097  0.2783  0.4456  0.0726
   46POPC   CN2 2342   2.882   2.808   1.239  0.3542  0.3391  0.2200
   46POPC   CN3 2343   2.794   2.588   1.267  0.3226  0.4130  0.5723
   46POPC   NTM 2344   2.833   2.689   1.168  0.3590  0.2293  0.3973
   46POPC    CA 2345   2.722   2.699   1.072  0.2732  0.2705  0.5009
   46POPC    CB 2346   2.586   2.759   1.108  0.2149  0.2944  0.2416
   46POPC    OA 2347   2.581   2.886   1.173 -0.3809  0.6908 -0.5495
   46POPC     P 2348   2.431   2.923   1.218 -0.4590 -0.3133  0.0457
   46POPC    OB 2349   2.335   2.834   1.148 -0.0924 -0.0136 -0.8531
   46POPC    OC 2350   2.400   3.065   1.247 -0.0643 -0.3155  0.4705
   46POPC    OD 2351   2.456   2.835   1.350  0.6593 -0.1222 -0.0304
   46POPC    CC 2352   2.446   2.916   1.468  0.6018  0.1567 -0.2252
   46POPC    CD 2353   2.473   2.832   1.593 -0.0434 -0.0468 -0.2129
   46POPC    OE 2354   2.426   2.889   1.716  0.2311 -0.0221 -0.1182
   46POPC   C1A 2355   2.297   2.893   1.747  0.2768 -0.6974  0.1809
   46POPC    OF 2356   2.211   2.860   1.665  0.3006  0.1148 -0.1805
   46POPC   C1B 2357   2.273   2.974   1.868 -0.4248 -0.6441  0.0120
   46POPC   C1C 2358   2.175   2.905   1.963 -0.4507 -0.3103  0.2264
   46POPC   C1D 2359   2.166   2.986   2.093 -0.3245 -0.0281  0.0618
   46POPC   C1E 2360   2.297   2.973   2.170 -0.4148  0.5441  0.3139
   46POPC   C1F 2361   2.294   3.052   2.302  0.0168  1.1369 -0.0236
   46POPC   C1G 2362   2.419   3.034   2.387  0.2499 -0.0649 -0.5989
   46POPC   C1H 2363   2.404   3.124   2.510  0.1860 -0.4143 -0.3502
   46POPC   C1I 2364   2.517   3.126   2.613  0.0515  0.2192 -0.2151
   46POPC   C1J 2365   2.496   3.113   2.744  0.1559 -0.6788 -0.2847
   46POPC   C1K 2366   2.351   3.109   2.790  0.2244  0.2631  0.0302
   46POPC   C1L 2367   2.329   3.023   2.914 -0.2527 -0.0613 -0.2749
   46POPC   C1M 2368   2.349   2.874   2.882  0.0238 -0.0699 -0.0701
   46POPC   C1N 2369   2.348   2.777   3.000  0.0830  0.1040  0.0743
   46POPC   C1O 2370   2.209   2.738   3.050 -0.0104  0.2285 -0.0910
   46POPC   C1P 2371   2.246   2.635   3.157 -0.3521  0.3080  0.1054
   46POPC   C1Q 2372   2.119   2.577   3.219  0.0967  0.1542  0.8814
   46POPC   C1R 2373   2.049   2.683   3.305 -0.6775  0.5440 -0.2051
   46POPC    CE 2374   2.623   2.799   1.590 -0.0501 -0.0935 -0.0632
   46POPC    OG 2375   2.701   2.919   1.595 -0.2106  0.0209 -0.2701
   46POPC   C2A 2376   2.834   2.926   1.602 -0.2442  0.2842  0.1209
   46POPC    OH 2377   2.898   2.821   1.602 -0.1533  0.3264  1.1800
   46POPC   C2B 2378   2.888   3.062   1.623  0.5757 -0.0463  0.1864
   46POPC   C2C 2379   2.887   3.093   1.773  0.7884  0.0441  0.1688
   46POPC   C2D 2380   2.950   3.229   1.805 -0.0452  0.4244  0.2377
   46POPC   C2E 2381   2.847   3.340   1.788  0.1900  0.6428  0.2180
   46POPC   C2F 2382   2.717   3.324   1.868  0.3219 -0.0853  0.2976
   46POPC   C2G 2383   2.729   3.364   2.015 -0.1136 -0.0827  0.3347
   46POPC   C2H 2384   2.606   3.323   2.096 -0.2244  0.2613  0.3440
   46POPC   C2I 2385   2.613   3.368   2.242 -0.1685  0.3520  0.3129
   46POPC   C2J 2386   2.532   3.496   2.267  0.1714  0.7148 -0.4070
   46POPC   C2K 2387   2.508   3.519   2.416  0.0831  0.1650 -0.3345
   46POPC   C2L 2388   2.432   3.652   2.416 -0.3377 -0.0718 -0.4309
   46POPC   C2M 2389   2.358   3.664   2.549 -0.6133  0.1304 -0.6017
   46POPC   C2N 2390   2.334   3.810   2.586 -0.8243  0.0288 -0.3308
   46POPC   C2O 2391   2.300   3.837   2.732 -0.0423  0.4857 -0.2291
   46POPC   C2P 2392   2.307   3.986   2.768  0.0303  0.4442 -0.0691
   47POPC   CN1 2393   2.348   3.579   1.432  0.0519 -0.0180 -0.2875
   47POPC   CN2 2394   2.343   3.354   1.507  0.1125  0.1459  0.1827
   47POPC   CN3 2395   2.541   3.454   1.413  0.0388 -0.1313  0.3421
   47POPC   NTM 2396   2.394   3.442   1.402  0.0610 -0.0733 -0.0271
   47POPC    CA 2397   2.353   3.399   1.268  0.4715 -0.1558 -0.1293
   47POPC    CB 2398   2.208   3.353   1.248  0.2916  0.4076 -0.1319
   47POPC    OA 2399   2.094   3.432   1.283  0.1796  0.3414 -0.3479
   47POPC     P 2400   1.960   3.357   1.234  0.1633  0.2003 -0.0860
   47POPC    OB 2401   1.947   3.230   1.309 -0.1113  0.3844  0.1821
   47POPC    OC 2402   1.995   3.366   1.091  0.4128  0.3854 -0.0140
   47POPC    OD 2403   1.845   3.462   1.273  0.0413 -0.0292  0.1824
   47POPC    CC 2404   1.829   3.479   1.414  0.1510  0.3003  0.1571
   47POPC    CD 2405   1.697   3.435   1.478  0.1299  0.1137 -0.0138
   47POPC    OE 2406   1.661   3.518   1.589  0.4049  0.2472 -0.0246
   47POPC   C1A 2407   1.542   3.518   1.648  0.2973  0.0413 -0.2387
   47POPC    OF 2408   1.440   3.501   1.582  0.0318 -0.1108  0.2038
   47POPC   C1B 2409   1.540   3.584   1.780  0.0760 -0.2925 -0.0748
   47POPC   C1C 2410   1.432   3.528   1.874  0.1285  0.1186  0.2359
   47POPC   C1D 2411   1.462   3.577   2.015  0.4104  0.4551  0.0611
   47POPC   C1E 2412   1.596   3.535   2.077  0.2294 -0.6120 -0.2642
   47POPC   C1F 2413   1.580   3.387   2.112 -0.2475 -0.5015 -0.0003
   47POPC   C1G 2414   1.702   3.307   2.160  0.0245 -0.2394 -0.2562
   47POPC   C1H 2415   1.803   3.373   2.255 -0.2146 -0.3797  0.0968
   47POPC   C1I 2416   1.918   3.271   2.258 -0.2666 -0.4415  0.0245
   47POPC   C1J 2417   2.009   3.277   2.355  0.2896 -0.3790 -0.4965
   47POPC   C1K 2418   1.990   3.390   2.457  0.2197 -0.5748 -0.2922
   47POPC   C1L 2419   2.053   3.358   2.592  0.4519  0.4574 -0.1524
   47POPC   C1M 2420   2.016   3.474   2.684 -0.7034 -0.0186 -0.0098
   47POPC   C1N 2421   2.079   3.471   2.823 -0.5055  0.0129 -0.0982
   47POPC   C1O 2422   2.003   3.569   2.915 -0.4785  0.0882 -0.1561
   47POPC   C1P 2423   2.059   3.543   3.055  0.1766  0.3000 -0.3751
   47POPC   C1Q 2424   2.001   3.413   3.111  0.1638  0.4956  0.0692
   47POPC   C1R 2425   2.041   3.398   3.258 -0.1510  0.2862  0.1331
   47POPC    CE 2426   1.708   3.289   1.520  0.1768  0.1191 -0.0073
   47POPC    OG 2427   1.820   3.258   1.603  0.1974  0.1666 -0.0176
   47POPC   C2A 2428   1.805   3.277   1.734 -0.0441 -0.3347  0.0312
   47POPC    OH 2429   1.700   3.292   1.794  0.1900  0.1696  0.3179
   47POPC   C2B 2430   1.937   3.275   1.801  0.1237 -0.1955 -0.2892
   47POPC   C2C 2431   2.013   3.407   1.809  0.0312 -0.1624  0.0515
   47POPC   C2D 2432   2.154   3.389   1.864  0.1562 -0.1368 -0.2558
   47POPC   C2E 2433   2.234   3.519   1.868 -0.3976  0.1955  0.1412
   47POPC   C2F 2434   2.164   3.624   1.955 -0.1884  0.4269  0.0330
   47POPC   C2G 2435   2.171   3.591   2.104  0.2394  0.1296 -0.0521
   47POPC   C2H 2436   2.120   3.717   2.174 -0.1832  0.2762 -0.6256
   47POPC   C2I 2437   1.969   3.736   2.157 -0.2023  0.3688 -0.3492
   47POPC   C2J 2438   1.937   3.859   2.242 -0.0897 -0.0434  0.2982
   47POPC   C2K 2439   1.922   3.821   2.389 -0.0245  0.1948  0.3678
   47POPC   C2L 2440   1.886   3.946   2.470  0.7003  0.1814  0.7133
   47POPC   C2M 2441   1.896   3.931   2.622  0.6183 -0.4306  0.6602
   47POPC   C2N 2442   1.847   4.047   2.708 -0.4262 -0.5540  0.2490
   47POPC   C2O 2443   1.810   4.006   2.851  0.0287 -0.4224  0.4078
   47POPC   C2P 2444   1.677   3.930   2.862  0.3275 -1.0547 -0.3054
   48POPC   CN1 2445   1.479   4.289   1.611  0.3947  0.2370 -0.5560
   48POPC   CN2 2446   1.514   4.509   1.541  0.2044 -0.2073  0.8029
   48POPC   CN3 2447   1.298   4.415   1.523 -0.0563 -0.1471 -0.6581
   48POPC   NTM 2448   1.441   4.386   1.507  0.0419  0.2169 -0.4457
   48POPC    CA 2449   1.473   4.332   1.375 -0.2411  0.0411 -0.4434
   48POPC    CB 2450   1.499   4.410   1.246 -0.0075  0.6699 -0.0154
   48POPC    OA 2451   1.403   4.510   1.210 -0.0844  0.4094 -0.5407
   48POPC     P 2452   1.464   4.612   1.101  0.1846  0.6100 -0.2050
   48POPC    OB 2453   1.336   4.663   1.047  0.1470  0.5221 -0.1999
   48POPC    OC 2454   1.574   4.551   1.024  0.4636  0.0908  0.5852
   48POPC    OD 2455   1.541   4.714   1.199 -0.0372 -0.0888  0.7174
   48POPC    CC 2456   1.432   4.793   1.246 -0.2399  0.2276 -0.2575
   48POPC    CD 2457   1.442   4.851   1.388 -0.1897 -0.3290 -0.0319
   48POPC    OE 2458   1.315   4.891   1.438 -0.0693  0.0226 -0.0040
   48POPC   C1A 2459   1.242   4.806   1.510 -0.1354  0.1139  0.0367
   48POPC    OF 2460   1.278   4.689   1.522  0.0888  0.2608  0.8984
   48POPC   C1B 2461   1.119   4.855   1.577  0.0285  0.0737  0.3710
   48POPC   C1C 2462   1.027   4.736   1.607  0.4196 -0.4093 -0.3088
   48POPC   C1D 2463   0.895   4.791   1.662  0.3100 -0.4209 -0.5569
   48POPC   C1E 2464   0.806   4.675   1.709 -0.4179  0.3627  0.0300
   48POPC   C1F 2465   0.867   4.584   1.815 -0.4733  0.3462  0.0472
   48POPC   C1G 2466   0.755   4.510   1.888 -0.2857 -0.0016 -0.0188
   48POPC   C1H 2467   0.807   4.425   2.005 -0.0340 -0.2357 -0.2989
   48POPC   C1I 2468   0.703   4.354   2.092  0.1981 -0.2251 -0.0098
   48POPC   C1J 2469   0.737   4.309   2.212 -0.0694  0.4176  0.3136
   48POPC   C1K 2470   0.887   4.320   2.241 -0.0191 -0.1905  0.2908
   48POPC   C1L 2471   0.924   4.200   2.328  0.4363 -0.0480  0.2963
   48POPC   C1M 2472   1.071   4.201   2.371  0.4549  0.3693  0.2295
   48POPC   C1N 2473   1.116   4.073   2.443  0.0105  0.1523  0.1233
   48POPC   C1O 2474   1.051   4.066   2.581 -0.6271  0.1354 -0.1757
   48POPC   C1P 2475   1.141   3.986   2.675 -0.4180  0.7578  0.1560
   48POPC   C1Q 2476   1.253   4.077   2.726  0.0601  0.2502  0.0305
   48POPC   C1R 2477   1.331   4.009   2.838 -0.0264 -0.1229 -0.1341
   48POPC    CE 2478   1.552   4.958   1.392 -0.2859 -0.2398  0.2237
   48POPC    OG 2479   1.616   4.998   1.513 -0.6381 -0.1134  0.3679
   48POPC   C2A 2480   1.730   4.935   1.535 -0.5263  0.0212  0.1796
   48POPC    OH 2481   1.764   4.831   1.478 -0.2643  0.1737  0.0600
   48POPC   C2B 2482   1.797   4.973   1.661 -0.9334  0.2387  0.3320
   48POPC   C2C 2483   1.761   4.880   1.776 -0.0223 -0.2707  0.2121
   48POPC   C2D 2484   1.781   4.961   1.905 -0.0599  0.4108 -0.2074
   48POPC   C2E 2485   1.730   4.893   2.032 -0.7000  0.4311 -0.4453
   48POPC   C2F 2486   1.739   4.993   2.148  0.0592  0.1160 -0.2204
   48POPC   C2G 2487   1.691   4.928   2.278  0.1788  0.1425 -0.1628
   48POPC   C2H 2488   1.629   5.030   2.374 -0.3144 -0.1810 -0.1302
   48POPC   C2I 2489   1.610   4.968   2.512  0.4583  0.2801  0.1949
   48POPC   C2J 2490   1.561   5.059   2.625  0.2580  0.3647  0.0399
   48POPC   C2K 2491   1.417   5.106   2.601  0.0783 -0.1732  0.0445
   48POPC   C2L 2492   1.365   5.162   2.733 -0.0642  0.0774 -0.1155
   48POPC   C2M 2493   1.219   5.204   2.723  0.1063  0.8228  0.3801
   48POPC   C2N 2494   1.162   5.238   2.861  0.1807 -0.1335  0.6566
   48POPC   C2O 2495   1.198   5.380   2.906  0.0721  0.0419  0.1941
   48POPC   C2P 2496   1.108   5.425   3.021 -0.4871 -0.8070  0.0958
   49POPC   CN1 2497   6.150   2.025   1.487 -0.0783  0.2995  0.3554
   49POPC   CN2 2498   5.937   2.060   1.389  0.4663  0.5415  0.2909
   49POPC   CN3 2499   6.033   1.849   1.360  0.0056  0.3784 -0.0096
   49POPC   NTM 2500   6.066   1.992   1.371  0.3107  0.3031  0.0706
   49POPC    CA 2501   6.132   2.023   1.243 -0.0357 -0.3610 -0.2786
   49POPC    CB 2502   6.178   2.167   1.219  0.2074 -0.4005 -0.0607
   49POPC    OA 2503   6.079   2.268   1.243  0.3618 -0.0570 -0.8297
   49POPC     P 2504   6.141   2.415   1.227  0.2296  0.1230  0.2452
   49POPC    OB 2505   6.041   2.515   1.182  0.3648  0.0673 -0.1865
   49POPC    OC 2506   6.273   2.406   1.161 -0.0471 -0.6300 -0.2167
   49POPC    OD 2507   6.181   2.435   1.381  0.0317  0.2503  0.2805
   49POPC    CC 2508   6.072   2.452   1.472 -0.2400 -0.4975  0.1041
   49POPC    CD 2509   6.104   2.430   1.620 -0.0117  0.6168  0.2316
   49POPC    OE 2510   5.998   2.412   1.713 -0.4745  0.0385 -0.3949
   49POPC   C1A 2511   5.928   2.301   1.738  0.0197 -0.2812 -0.4211
   49POPC    OF 2512   5.950   2.205   1.664  0.2455 -0.4235 -0.1675
   49POPC   C1B 2513   5.822   2.316   1.839  0.2318  0.0503 -0.2451
   49POPC   C1C 2514   5.873   2.275   1.977  0.3450 -0.0506 -0.3167
   49POPC   C1D 2515   5.925   2.394   2.060  0.0771  0.0703 -0.3212
   49POPC   C1E 2516   5.882   2.373   2.205  0.0407  0.3902 -0.2866
   49POPC   C1F 2517   5.963   2.466   2.296  0.0321  0.6531 -0.5464
   49POPC   C1G 2518   6.111   2.433   2.316 -0.2662 -0.3275  0.1252
   49POPC   C1H 2519   6.172   2.498   2.440 -0.1714 -0.1474 -0.0159
   49POPC   C1I 2520   6.131   2.418   2.564 -0.1427 -0.2857 -0.0967
   49POPC   C1J 2521   6.111   2.484   2.678 -0.5898 -0.7271  0.0850
   49POPC   C1K 2522   6.109   2.636   2.671 -0.6743 -0.7398 -0.1724
   49POPC   C1L 2523   6.072   2.668   2.816  0.3488  0.2531 -0.1179
   49POPC   C1M 2524   6.087   2.814   2.859 -0.5862  0.4731 -0.5043
   49POPC   C1N 2525   6.005   2.840   2.985 -0.1942  0.0630 -0.1642
   49POPC   C1O 2526   5.998   2.991   3.008  0.7047  0.1148 -0.1991
   49POPC   C1P 2527   5.882   3.002   3.107  0.4672  0.3542 -0.5034
   49POPC   C1Q 2528   5.846   3.147   3.142 -0.1162  0.0075  0.3626
   49POPC   C1R 2529   5.720   3.149   3.228 -0.0331 -0.7587  0.5136
   49POPC    CE 2530   6.207   2.540   1.646  0.7453  0.0061 -0.1276
   49POPC    OG 2531   6.149   2.669   1.664  0.1741 -0.1402 -0.8735
   49POPC   C2A 2532   6.238   2.767   1.679  0.1581 -0.3682  0.9458
   49POPC    OH 2533   0.040   2.758   1.629 -0.2062 -0.4332  0.1203
   49POPC   C2B 2534   6.163   2.894   1.694 -0.1545 -0.4642  0.2576
   49POPC   C2C 2535   6.259   2.990   1.765  0.1995 -0.4464 -0.2400
   49POPC   C2D 2536   6.186   3.117   1.811 -0.1039 -0.6456 -0.1707
   49POPC   C2E 2537   6.284   3.221   1.864  0.1269 -0.7270 -0.4352
   49POPC   C2F 2538   6.309   3.188   2.011 -0.2020  0.1316 -0.1805
   49POPC   C2G 2539   0.086   3.303   2.063 -0.1053 -0.2194  0.4428
   49POPC   C2H 2540   0.099   3.288   2.215 -0.1117 -0.5688  0.4103
   49POPC   C2I 2541   0.163   3.404   2.292 -0.4807  0.2150 -0.4324
   49POPC   C2J 2542   0.185   3.375   2.441  0.2152  0.2269 -0.5329
   49POPC   C2K 2543   0.250   3.492   2.516  0.2644 -0.0284 -0.1789
   49POPC   C2L 2544   0.154   3.611   2.523  0.4243  0.1273 -0.6302
   49POPC   C2M 2545   0.195   3.713   2.629 -0.1342 -0.8308  0.5320
   49POPC   C2N 2546   0.083   3.817   2.637  0.1482 -0.4916  0.0508
   49POPC   C2O 2547   0.124   3.939   2.720  0.0093 -0.1483 -0.3794
   49POPC   C2P 2548   0.001   4.030   2.724 -0.2595 -0.5238 -0.0231
   50POPC   CN1 2549   3.119   5.858   1.277 -0.2010  0.1768 -0.6401
   50POPC   CN2 2550   3.197   5.643   1.225  0.0774 -0.0769 -0.0878
   50POPC   CN3 2551   3.072   5.785   1.063 -0.4374  0.3889  0.0827
   50POPC   NTM 2552   3.085   5.736   1.201  0.0029 -0.1837 -0.1574
   50POPC    CA 2553   2.968   5.683   1.272 -0.3946  0.2435 -0.4903
   50POPC    CB 2554   2.867   5.592   1.203 -0.4741  0.2934 -0.4401
   50POPC    OA 2555   2.922   5.468   1.157 -0.4152 -0.0099  0.4224
   50POPC     P 2556   2.884   5.345   1.253 -0.5361 -0.3312 -0.0341
   50POPC    OB 2557   2.950   5.225   1.195  0.3324  0.1155  0.0152
   50POPC    OC 2558   2.744   5.336   1.300 -0.2977 -0.6047  0.6365
   50POPC    OD 2559   2.979   5.391   1.374 -0.1712 -0.3027 -0.3267
   50POPC    CC 2560   2.987   5.286   1.472  0.0720  0.1053  0.0956
   50POPC    CD 2561   3.132   5.238   1.480  0.0088 -0.1404 -0.2001
   50POPC    OE 2562   3.153   5.125   1.565 -0.0248  0.1809  0.2381
   50POPC   C1A 2563   3.104   5.003   1.546 -0.1992  0.2689  0.1224
   50POPC    OF 2564   3.031   4.987   1.448  0.1738 -0.6827 -0.0151
   50POPC   C1B 2565   3.149   4.898   1.640  0.0548 -0.2966 -0.6140
   50POPC   C1C 2566   3.266   4.821   1.580  0.2112 -0.3000 -0.3062
   50POPC   C1D 2567   3.338   4.741   1.689 -0.3911  0.1856  0.4625
   50POPC   C1E 2568   3.394   4.843   1.787 -0.0070  0.6030 -0.1835
   50POPC   C1F 2569   3.444   4.775   1.915 -0.0963  0.1069 -0.4145
   50POPC   C1G 2570   3.323   4.704   1.976 -0.0175  0.3156 -0.0125
   50POPC   C1H 2571   3.344   4.669   2.123 -0.5205  0.0211 -0.0090
   50POPC   C1I 2572   3.235   4.617   2.217  0.1728 -0.6576  0.4315
   50POPC   C1J 2573   3.229   4.634   2.349  0.2034  0.4012  0.3026
   50POPC   C1K 2574   3.343   4.700   2.428  0.3481 -0.1569  0.5689
   50POPC   C1L 2575   3.289   4.778   2.548  0.3397  0.5498  0.1153
   50POPC   C1M 2576   3.391   4.802   2.660  0.7393 -0.5146 -0.0045
   50POPC   C1N 2577   3.332   4.870   2.784  0.1595 -0.9152 -0.0566
   50POPC   C1O 2578   3.434   4.947   2.867 -0.4400  0.0656 -0.2170
   50POPC   C1P 2579   3.469   5.091   2.828  0.4683  0.0865  0.6063
   50POPC   C1Q 2580   3.587   5.143   2.909  0.6641  0.3204  0.1769
   50POPC   C1R 2581   3.648   5.262   2.835  0.0898  0.4129 -0.1528
   50POPC    CE 2582   3.220   5.358   1.513 -0.1096 -0.1300  0.0806
   50POPC    OG 2583   3.182   5.429   1.632 -0.5215  0.0883 -0.1804
   50POPC   C2A 2584   3.163   5.560   1.627 -0.5809  0.0779 -0.2256
   50POPC    OH 2585   3.164   5.614   1.516 -0.1805  0.1016 -0.2119
   50POPC   C2B 2586   3.129   5.635   1.750 -0.2890 -0.0470 -0.0683
   50POPC   C2C 2587   2.984   5.679   1.733 -0.3598 -0.3164 -0.1757
   50POPC   C2D 2588   2.915   5.734   1.858 -0.2092 -0.3150 -0.0929
   50POPC   C2E 2589   2.791   5.811   1.814  0.2332  0.5298  0.1145
   50POPC   C2F 2590   2.738   5.918   1.910 -0.2309  0.3430  0.0714
   50POPC   C2G 2591   2.838   6.011   1.978  0.0326  0.0649  0.0685
   50POPC   C2H 2592   2.786   6.151   2.014 -0.2133 -0.0013 -0.0337
   50POPC   C2I 2593   2.864   6.220   2.126  0.2771 -0.0115 -0.3637
   50POPC   C2J 2594   2.816   0.026   2.128 -0.7796 -0.3541  0.2985
   50POPC   C2K 2595   2.871   0.092   2.255 -0.1661 -0.5164  0.1216
   50POPC   C2L 2596   2.755   0.161   2.328  0.0729  0.1540 -0.1216
   50POPC   C2M 2597   2.791   0.200   2.471  0.1697  0.0799 -0.1252
   50POPC   C2N 2598   2.787   0.077   2.563 -0.2987 -0.5851 -1.0225
   50POPC   C2O 2599   2.654   0.002   2.550 -0.7089  0.0180 -0.3619
   50POPC   C2P 2600   2.659   6.202   2.611 -0.1768  0.2719  0.1924
   51POPC   CN1 2601   3.924   3.468   1.426  0.1625 -0.1848  0.4653
   51POPC   CN2 2602   3.801   3.275   1.379 -0.0498  0.1020 -0.2000
   51POPC   CN3 2603   4.016   3.285   1.303 -0.0611 -0.1839  0.0197
   51POPC   NTM 2604   3.897   3.369   1.320  0.1723  0.1131  0.1839
   51POPC    CA 2605   3.854   3.437   1.198  0.1439  0.2404  0.2647
   51POPC    CB 2606   3.798   3.367   1.074  0.3869  0.0159  0.2835
   51POPC    OA 2607   3.671   3.306   1.100  0.4339 -0.3312 -0.2771
   51POPC     P 2608   3.627   3.200   0.988 -0.1169 -0.0765 -0.3010
   51POPC    OB 2609   3.674   3.260   0.861 -0.2490  0.1109 -0.2614
   51POPC    OC 2610   3.485   3.160   1.000 -0.1181  0.0133 -0.0096
   51POPC    OD 2611   3.729   3.083   1.030 -0.1499 -0.0015 -0.0118
   51POPC    CC 2612   3.665   2.989   1.117  0.1988 -0.0627  0.1771
   51POPC    CD 2613   3.728   2.850   1.137  0.1421 -0.2271 -0.7630
   51POPC    OE 2614   3.639   2.757   1.199  0.5321 -0.1852 -0.1314
   51POPC   C1A 2615   3.683   2.633   1.219  0.4834 -0.1271  0.3431
   51POPC    OF 2616   3.784   2.589   1.164  0.6265  0.1153  0.4100
   51POPC   C1B 2617   3.591   2.549   1.298  0.2584 -0.2801 -0.0816
   51POPC   C1C 2618   3.649   2.551   1.439 -0.1273  0.6340  0.0706
   51POPC   C1D 2619   3.538   2.511   1.538  0.5116 -0.3596  0.4023
   51POPC   C1E 2620   3.590   2.538   1.679  0.2156 -0.0587  0.4556
   51POPC   C1F 2621   3.493   2.507   1.793 -0.3880 -0.1697 -0.0826
   51POPC   C1G 2622   3.394   2.619   1.827  0.2166  0.3563 -0.0187
   51POPC   C1H 2623   3.286   2.551   1.912  0.2929  0.1212 -0.1068
   51POPC   C1I 2624   3.205   2.664   1.976  0.7905  0.3460  0.1387
   51POPC   C1J 2625   3.237   2.718   2.094 -0.0185  0.8606  0.1298
   51POPC   C1K 2626   3.363   2.658   2.156 -0.1010  0.1803 -0.3377
   51POPC   C1L 2627   3.448   2.768   2.221  0.0681  0.0545 -0.3472
   51POPC   C1M 2628   3.570   2.721   2.300 -0.1152 -0.0614 -0.1320
   51POPC   C1N 2629   3.530   2.672   2.439 -0.1366  0.0056 -0.1140
   51POPC   C1O 2630   3.647   2.674   2.538 -0.2340 -0.3933  0.0128
   51POPC   C1P 2631   3.701   2.817   2.546 -0.0773 -0.4436 -0.1570
   51POPC   C1Q 2632   3.814   2.827   2.649  0.0332  0.2315 -0.3348
   51POPC   C1R 2633   3.876   2.966   2.642  0.0192  0.3007  0.7181
   51POPC    CE 2634   3.855   2.888   1.213 -0.4115 -0.1239  0.1213
   51POPC    OG 2635   3.837   2.924   1.350  0.0510  0.5638  0.0079
   51POPC   C2A 2636   3.951   2.929   1.418 -0.0679  0.1044  0.2533
   51POPC    OH 2637   4.055   2.955   1.357 -0.2018  0.3448  0.1265
   51POPC   C2B 2638   3.923   2.958   1.561 -0.2144  0.2418  0.1969
   51POPC   C2C 2639   3.950   2.836   1.648 -0.1335  0.0062 -0.1547
   51POPC   C2D 2640   3.882   2.866   1.782 -0.0723  0.0159 -0.1256
   51POPC   C2E 2641   3.902   2.756   1.886 -0.1679  0.1672  0.0525
   51POPC   C2F 2642   3.809   2.788   2.004 -0.3270  0.4436 -0.1478
   51POPC   C2G 2643   3.846   2.913   2.084  0.0087 -0.0238  0.4344
   51POPC   C2H 2644   3.966   2.879   2.173  0.4792  0.2598 -0.0828
   51POPC   C2I 2645   4.041   3.006   2.215 -0.2876  0.8103 -0.3370
   51POPC   C2J 2646   4.131   2.968   2.333  0.1850 -0.0943 -0.9721
   51POPC   C2K 2647   4.235   3.079   2.347  0.0742 -0.1644  0.5682
   51POPC   C2L 2648   4.199   3.195   2.440  0.1773  0.1156  0.2631
   51POPC   C2M 2649   4.313   3.296   2.452  0.2245  0.0965 -0.0390
   51POPC   C2N 2650   4.330   3.379   2.324 -0.1310  0.3314  0.0631
   51POPC   C2O 2651   4.228   3.492   2.332  0.0411  0.4846  0.0805
   51POPC   C2P 2652   4.259   3.591   2.445  0.0296 -0.2738  0.7594
   52POPC   CN1 2653   3.016   1.960   2.058 -0.1754  0.3331 -0.1437
   52POPC   CN2 2654   2.994   2.177   1.976  0.4825 -0.2585 -1.1833
   52POPC   CN3 2655   2.801   2.055   1.974  0.3418  0.5845 -0.7807
   52POPC   NTM 2656   2.946   2.039   1.955  0.2493 -0.2264 -0.8726
   52POPC    CA 2657   2.997   1.975   1.833 -0.1482 -0.3562 -0.9722
   52POPC    CB 2658   2.919   1.981   1.702 -0.7511 -0.1970 -0.6052
   52POPC    OA 2659   2.914   2.105   1.631  0.2034  0.1267 -0.1224
   52POPC     P 2660   2.792   2.097   1.526 -0.1927 -0.2120  0.3576
   52POPC    OB 2661   2.767   1.959   1.477  0.1023 -0.2300  0.2571
   52POPC    OC 2662   2.820   2.191   1.416 -0.0690 -0.3876  0.2371
   52POPC    OD 2663   2.681   2.167   1.618 -0.0424  0.2721  0.1709
   52POPC    CC 2664   2.699   2.309   1.614  0.1464  0.2371 -0.3714
   52POPC    CD 2665   2.768   2.380   1.731 -0.0155 -0.1614 -0.0326
   52POPC    OE 2666   2.672   2.453   1.808 -0.2661 -0.7133  0.1857
   52POPC   C1A 2667   2.689   2.454   1.940 -0.2956  0.1261  0.1843
   52POPC    OF 2668   2.740   2.356   1.993  0.0829  0.2204  0.0019
   52POPC   C1B 2669   2.615   2.555   2.019 -0.1928  0.7079 -0.4459
   52POPC   C1C 2670   2.699   2.681   2.035  0.2187  0.3088  0.6980
   52POPC   C1D 2671   2.638   2.809   2.093 -0.0168  0.4986  0.0472
   52POPC   C1E 2672   2.749   2.902   2.143  0.4279  0.3006 -0.5658
   52POPC   C1F 2673   2.825   2.856   2.267 -0.2718 -0.1383 -0.2948
   52POPC   C1G 2674   2.956   2.930   2.298 -0.0841 -0.4663 -0.2943
   52POPC   C1H 2675   3.004   2.884   2.435  0.0884  0.0668 -0.1749
   52POPC   C1I 2676   3.139   2.944   2.474  0.0725 -0.1036  0.1488
   52POPC   C1J 2677   3.159   3.040   2.563 -0.1625  0.9992 -0.9707
   52POPC   C1K 2678   3.056   3.105   2.654 -0.1510 -0.0400 -0.2035
   52POPC   C1L 2679   3.071   3.051   2.797 -0.1329  0.1912 -0.1171
   52POPC   C1M 2680   2.989   3.138   2.892 -0.0661  0.2676 -0.1286
   52POPC   C1N 2681   2.973   3.072   3.029  0.4153  0.2968 -0.0588
   52POPC   C1O 2682   2.902   3.155   3.136 -0.0299  0.2089 -0.2870
   52POPC   C1P 2683   2.920   3.099   3.277 -0.9450 -0.2514 -0.3423
   52POPC   C1Q 2684   2.873   3.194   3.388 -0.3971  0.3976 -0.6619
   52POPC   C1R 2685   2.975   3.307   3.407  0.3926 -0.3741 -0.2265
   52POPC    CE 2686   2.911   2.422   1.694 -0.2241  0.1291 -0.5072
   52POPC    OG 2687   2.939   2.501   1.578 -0.1742  0.7678 -0.0632
   52POPC   C2A 2688   3.069   2.513   1.554 -0.0426  0.7702  0.6269
   52POPC    OH 2689   3.156   2.458   1.622  0.1329  0.0888 -0.1307
   52POPC   C2B 2690   3.104   2.602   1.441 -0.3590  0.4307  0.2594
   52POPC   C2C 2691   3.218   2.691   1.491 -0.5246  0.6487  0.2495
   52POPC   C2D 2692   3.270   2.793   1.389 -0.2104  0.0322 -0.2134
   52POPC   C2E 2693   3.322   2.924   1.448 -0.0284 -0.0695 -0.1465
   52POPC   C2F 2694   3.391   2.918   1.585  0.2926  0.4570 -0.2824
   52POPC   C2G 2695   3.430   3.063   1.615 -0.7211  0.6811  0.0094
   52POPC   C2H 2696   3.473   3.089   1.760 -0.1488  0.3468 -0.0992
   52POPC   C2I 2697   3.372   3.063   1.871  0.1053  0.3404  0.1319
   52POPC   C2J 2698   3.391   3.115   2.014 -0.1084  0.3491  0.1572
   52POPC   C2K 2699   3.335   3.257   2.022  0.2794  0.5096  0.0508
   52POPC   C2L 2700   3.204   3.250   2.101  0.3679  0.2861  0.1788
   52POPC   C2M 2701   3.184   3.362   2.203 -0.1595  0.4504 -0.1000
   52POPC   C2N 2702   3.077   3.326   2.306 -0.7417  0.5240 -0.6717
   52POPC   C2O 2703   3.087   3.436   2.412 -0.5109 -0.0676 -0.0696
   52POPC   C2P 2704   2.972   3.441   2.512 -0.0551  0.4957  0.4352
   53POPC   CN1 2705   1.887   4.607   1.233  0.0802 -0.1510  0.2039
   53POPC   CN2 2706   2.082   4.734   1.255 -0.1980 -0.1819 -0.4019
   53POPC   CN3 2707   1.894   4.846   1.173  1.2047  0.3174 -0.1847
   53POPC   NTM 2708   1.963   4.716   1.171 -0.1203 -0.3928 -0.4681
   53POPC    CA 2709   2.011   4.687   1.035  1.0254 -0.0172 -0.1498
   53POPC    CB 2710   2.093   4.561   1.004  0.8784 -0.1280 -0.0889
   53POPC    OA 2711   2.036   4.434   1.037  0.1664  0.1405 -0.2554
   53POPC     P 2712   2.127   4.334   1.125 -0.2209  0.1487  0.1556
   53POPC    OB 2713   2.272   4.355   1.101 -0.2540  0.0360 -0.1347
   53POPC    OC 2714   2.067   4.200   1.136 -0.1258  0.1087  0.1882
   53POPC    OD 2715   2.094   4.411   1.263  0.0388 -0.0594  0.3355
   53POPC    CC 2716   2.164   4.346   1.369  0.4526  0.4892  0.4036
   53POPC    CD 2717   2.141   4.406   1.508 -0.0485  0.2079  0.4437
   53POPC    OE 2718   2.253   4.390   1.596 -0.1726 -0.4219  0.4923
   53POPC   C1A 2719   2.365   4.459   1.575 -0.2320 -0.6325 -0.5731
   53POPC    OF 2720   2.383   4.524   1.472  0.2969 -0.3792 -0.3239
   53POPC   C1B 2721   2.463   4.441   1.684 -0.0396  0.9818 -0.4594
   53POPC   C1C 2722   2.521   4.580   1.710  0.5515  0.6776 -0.1392
   53POPC   C1D 2723   2.601   4.565   1.839 -0.0692 -0.0565  0.1648
   53POPC   C1E 2724   2.700   4.681   1.855 -0.3713  0.2035  0.1656
   53POPC   C1F 2725   2.635   4.819   1.859 -0.2173  0.2884 -0.1716
   53POPC   C1G 2726   2.741   4.930   1.862 -0.2461  0.3082  0.1554
   53POPC   C1H 2727   2.668   5.065   1.855 -0.2134  0.3055 -0.2444
   53POPC   C1I 2728   2.767   5.178   1.826  0.3237 -0.0433  0.2155
   53POPC   C1J 2729   2.737   5.291   1.763  0.4398 -0.3444 -0.3868
   53POPC   C1K 2730   2.593   5.326   1.726  0.0925 -0.4212  0.8586
   53POPC   C1L 2731   2.520   5.434   1.807  0.2258 -0.0539  0.4899
   53POPC   C1M 2732   2.371   5.404   1.826  0.1068  0.0027 -0.3011
   53POPC   C1N 2733   2.353   5.282   1.916 -0.1487 -0.3163 -0.7832
   53POPC   C1O 2734   2.202   5.262   1.936 -0.0263 -0.4911  0.0239
   53POPC   C1P 2735   2.160   5.131   2.003  0.4448 -0.5687  0.1741
   53POPC   C1Q 2736   2.196   5.141   2.151 -0.2368 -0.3393  0.3280
   53POPC   C1R 2737   2.078   5.206   2.223 -0.2100  0.2512 -0.1499
   53POPC    CE 2738   2.009   4.351   1.562  0.0730 -0.3841  0.1510
   53POPC    OG 2739   1.961   4.440   1.663 -0.1625 -0.1351 -0.1757
   53POPC   C2A 2740   1.848   4.407   1.725 -0.1084 -0.3350 -0.1821
   53POPC    OH 2741   1.779   4.319   1.673 -0.1788 -0.3839 -0.0077
   53POPC   C2B 2742   1.812   4.499   1.836 -0.5206 -0.4009 -0.2584
   53POPC   C2C 2743   1.746   4.425   1.952  0.3901 -0.2622  0.3553
   53POPC   C2D 2744   1.751   4.521   2.072 -0.5098  0.2529 -0.0093
   53POPC   C2E 2745   1.656   4.464   2.178 -0.2152 -0.2351 -0.0042
   53POPC   C2F 2746   1.656   4.549   2.305 -0.9117  0.5036 -0.4867
   53POPC   C2G 2747   1.560   4.505   2.415 -0.3456  0.0831 -0.1565
   53POPC   C2H 2748   1.603   4.367   2.466 -0.3133  0.0307 -0.3243
   53POPC   C2I 2749   1.556   4.327   2.606  0.0344  0.2849 -0.1335
   53POPC   C2J 2750   1.623   4.420   2.708 -0.6347  0.9371 -0.2781
   53POPC   C2K 2751   1.564   4.399   2.847 -0.3304  0.6807 -0.1866
   53POPC   C2L 2752   1.653   4.458   2.958  0.5839 -0.0708 -0.5056
   53POPC   C2M 2753   1.645   4.610   2.952 -0.0350 -0.0791 -0.0212
   53POPC   C2N 2754   1.758   4.662   3.042  0.2848  0.0011 -0.4654
   53POPC   C2O 2755   1.795   4.810   3.028 -0.3281  0.2105  0.1090
   53POPC   C2P 2756   1.670   4.891   3.063 -0.5569  0.1079 -0.4664
   54POPC   CN1 2757   3.279   3.642   1.164 -0.2662 -0.0758  0.0273
   54POPC   CN2 2758   3.436   3.491   1.240  0.4820  0.5385 -0.1779
   54POPC   CN3 2759   3.443   3.531   1.014  0.0502 -0.0362  0.7080
   54POPC   NTM 2760   3.347   3.518   1.125 -0.3973 -0.2360  0.3044
   54POPC    CA 2761   3.263   3.403   1.091 -0.4113  0.0803 -0.7525
   54POPC    CB 2762   3.172   3.349   1.202  0.1592 -0.0273 -0.3342
   54POPC    OA 2763   3.072   3.448   1.229  0.9830  0.6331  0.3403
   54POPC     P 2764   3.040   3.450   1.387  0.4083  0.0155  0.2338
   54POPC    OB 2765   3.060   3.314   1.443 -0.3187 -0.2833 -0.2152
   54POPC    OC 2766   2.920   3.533   1.413 -0.0460 -0.3509 -0.6636
   54POPC    OD 2767   3.168   3.536   1.434  0.3305  0.1307  0.2333
   54POPC    CC 2768   3.208   3.506   1.568 -0.1712  0.3234  0.4301
   54POPC    CD 2769   3.317   3.605   1.609 -0.1067  0.3444  0.2070
   54POPC    OE 2770   3.415   3.541   1.691 -0.5739 -0.5761  0.0652
   54POPC   C1A 2771   3.525   3.478   1.651 -0.0195  0.5670 -0.2389
   54POPC    OF 2772   3.534   3.450   1.532  0.5682 -0.0064 -0.0647
   54POPC   C1B 2773   3.596   3.427   1.770 -0.7773  0.0447 -0.0060
   54POPC   C1C 2774   3.749   3.433   1.766 -0.7880  0.1767 -0.2215
   54POPC   C1D 2775   3.820   3.352   1.875 -0.5577  0.4604 -0.1596
   54POPC   C1E 2776   3.759   3.377   2.013 -0.0097  0.1416  0.1435
   54POPC   C1F 2777   3.843   3.315   2.125  0.1568  0.4102  0.1689
   54POPC   C1G 2778   3.793   3.366   2.261 -0.3430 -0.5538  0.3521
   54POPC   C1H 2779   3.645   3.338   2.289 -0.5303  0.5630  0.5241
   54POPC   C1I 2780   3.611   3.196   2.335 -0.1134  0.3187  0.0905
   54POPC   C1J 2781   3.585   3.171   2.463 -0.0668  0.3004  0.0966
   54POPC   C1K 2782   3.582   3.278   2.572 -0.0824  0.0121  0.3800
   54POPC   C1L 2783   3.482   3.233   2.679  0.0375  0.0616  0.5133
   54POPC   C1M 2784   3.429   3.347   2.767 -0.4322  0.1608  0.1099
   54POPC   C1N 2785   3.411   3.278   2.903 -0.4070  0.0252  0.0456
   54POPC   C1O 2786   3.358   3.372   3.012 -0.3014  0.1727 -0.0296
   54POPC   C1P 2787   3.450   3.491   3.038 -0.1578  0.0017  0.2419
   54POPC   C1Q 2788   3.402   3.589   3.146 -0.5962  0.2701 -0.1934
   54POPC   C1R 2789   3.515   3.691   3.154 -0.1654 -0.2229  0.0412
   54POPC    CE 2790   3.249   3.736   1.646 -0.0973  0.4188 -0.0375
   54POPC    OG 2791   3.148   3.720   1.746  0.1851 -0.5362  0.1021
   54POPC   C2A 2792   3.132   3.831   1.819  0.2164 -0.4717  0.0113
   54POPC    OH 2793   3.200   3.932   1.804 -0.1547 -0.2191  0.0192
   54POPC   C2B 2794   3.024   3.821   1.920  0.1939  0.3258  0.0699
   54POPC   C2C 2795   3.051   3.716   2.028  0.0002  0.5841  0.3721
   54POPC   C2D 2796   2.953   3.710   2.145  0.0136 -0.0565  0.3568
   54POPC   C2E 2797   2.960   3.829   2.241 -0.1396  0.1533  0.1098
   54POPC   C2F 2798   2.879   3.808   2.370 -0.8602  0.5067 -0.2819
   54POPC   C2G 2799   2.893   3.926   2.466 -0.2979  0.3370 -0.1505
   54POPC   C2H 2800   2.775   3.954   2.559 -0.2051 -0.7012  0.2892
   54POPC   C2I 2801   2.815   4.036   2.681 -0.4120 -0.8383  0.4515
   54POPC   C2J 2802   2.719   4.049   2.800 -0.4793  0.0500  0.3113
   54POPC   C2K 2803   2.765   4.125   2.924  0.8239  0.1204 -0.1954
   54POPC   C2L 2804   2.652   4.190   3.005  0.3650 -0.5242 -0.3142
   54POPC   C2M 2805   2.574   4.087   3.087  0.8387  0.0463  0.8675
   54POPC   C2N 2806   2.452   4.158   3.146  0.2717 -0.2443  0.0655
   54POPC   C2O 2807   2.356   4.068   3.223  0.3414 -0.3664  0.0104
   54POPC   C2P 2808   2.295   3.976   3.117  0.0277  0.0797 -0.2014
   55POPC   CN1 2809   4.821   4.880   1.305 -0.1130  0.1901  0.6016
   55POPC   CN2 2810   4.623   4.863   1.428 -0.1728  0.7125 -0.2506
   55POPC   CN3 2811   4.668   4.715   1.247 -0.0304 -0.2709  0.1017
   55POPC   NTM 2812   4.677   4.855   1.292  0.0154 -0.1973 -0.1336
   55POPC    CA 2813   4.606   4.937   1.193  0.0985  0.1893  0.1250
   55POPC    CB 2814   4.453   4.943   1.183  0.0870 -0.0600  0.1439
   55POPC    OA 2815   4.384   4.983   1.302 -0.0555  0.2279 -0.0356
   55POPC     P 2816   4.349   5.139   1.278  0.1484  0.2619 -0.1200
   55POPC    OB 2817   4.231   5.135   1.189 -0.1250 -0.2905  0.2558
   55POPC    OC 2818   4.475   5.204   1.238  0.0983  0.1805 -0.4094
   55POPC    OD 2819   4.318   5.197   1.425 -0.2235  0.0980 -0.1301
   55POPC    CC 2820   4.433   5.199   1.511 -0.1651 -0.6870 -0.1889
   55POPC    CD 2821   4.527   5.318   1.529 -0.5497 -0.4999  0.5781
   55POPC    OE 2822   4.635   5.290   1.619  0.2808  0.4577 -0.1066
   55POPC   C1A 2823   4.734   5.206   1.590 -0.0113  0.2077 -0.3906
   55POPC    OF 2824   4.735   5.137   1.488 -0.3561 -0.4685  0.0595
   55POPC   C1B 2825   4.830   5.194   1.702  0.0733 -0.4865 -0.5316
   55POPC   C1C 2826   4.946   5.290   1.676 -0.1582 -0.0557 -0.0027
   55POPC   C1D 2827   5.067   5.254   1.762 -0.3438  0.3754  0.4446
   55POPC   C1E 2828   5.173   5.362   1.744 -0.0756  0.0205 -0.1488
   55POPC   C1F 2829   5.157   5.483   1.837 -0.8870  0.1361 -0.4373
   55POPC   C1G 2830   5.173   5.438   1.983  0.6371  0.2991 -0.5429
   55POPC   C1H 2831   5.201   5.552   2.081 -0.0845 -0.3356  0.4164
   55POPC   C1I 2832   5.348   5.587   2.056 -0.0982 -0.1355  0.6164
   55POPC   C1J 2833   5.403   5.696   2.110  0.3085 -0.1116  0.1639
   55POPC   C1K 2834   5.324   5.796   2.196  0.4373 -0.3645  0.5790
   55POPC   C1L 2835   5.380   5.937   2.176  0.0244 -0.2463  0.2515
   55POPC   C1M 2836   5.304   6.038   2.263 -0.3248 -0.1842 -0.1203
   55POPC   C1N 2837   5.332   6.018   2.412  1.0553  0.2642 -0.3098
   55POPC   C1O 2838   5.265   6.128   2.494  0.0042 -0.2962 -0.4077
   55POPC   C1P 2839   5.269   6.101   2.645  0.4151  0.4447 -0.2791
   55POPC   C1Q 2840   5.196   6.198   2.738  0.0696  0.0707 -0.1588
   55POPC   C1R 2841   5.244   0.001   2.715  0.0690  0.0635 -0.2047
   55POPC    CE 2842   4.428   5.429   1.565 -0.1722  0.1743 -0.4238
   55POPC    OG 2843   4.321   5.412   1.659  0.2209  0.1640  0.0259
   55POPC   C2A 2844   4.238   5.515   1.675 -0.2623 -0.2355  0.1022
   55POPC    OH 2845   4.219   5.595   1.583 -0.6852  0.2014  0.5660
   55POPC   C2B 2846   4.139   5.490   1.782 -0.3638 -0.5016 -0.0519
   55POPC   C2C 2847   4.188   5.549   1.914  0.0998 -0.3332 -0.2966
   55POPC   C2D 2848   4.103   5.506   2.033  0.3529 -0.3722 -0.1288
   55POPC   C2E 2849   4.190   5.511   2.159 -0.2074  0.1467  0.2456
   55POPC   C2F 2850   4.122   5.429   2.268 -0.5478 -0.0977 -0.1493
   55POPC   C2G 2851   4.198   5.446   2.400 -0.0251 -0.3720 -0.4125
   55POPC   C2H 2852   4.318   5.352   2.409  0.1168 -0.1742 -0.2578
   55POPC   C2I 2853   4.265   5.211   2.435  0.9629 -0.3791  0.4383
   55POPC   C2J 2854   4.328   5.103   2.347  0.2815 -0.4560  0.0347
   55POPC   C2K 2855   4.261   4.975   2.399  0.0107 -0.3208  0.0233
   55POPC   C2L 2856   4.289   4.860   2.303 -0.0941 -0.3388  0.0151
   55POPC   C2M 2857   4.438   4.829   2.286  0.0229  0.2805 -0.0861
   55POPC   C2N 2858   4.458   4.700   2.206 -0.2886  0.6573 -0.7861
   55POPC   C2O 2859   4.598   4.704   2.146  0.3720  0.1630  0.6684
   55POPC   C2P 2860   4.624   4.563   2.094  0.2720  0.3922 -0.0178
   56POPC   CN1 2861   2.400   5.511   1.402 -0.6011  0.3233  0.5109
   56POPC   CN2 2862   2.421   5.590   1.174 -0.0378 -0.3664 -0.0788
   56POPC   CN3 2863   2.298   5.703   1.341 -0.1595 -0.5465  0.1154
   56POPC   NTM 2864   2.330   5.570   1.288 -0.1393 -0.4283 -0.1709
   56POPC    CA 2865   2.208   5.498   1.250 -0.3283 -0.1510 -0.0950
   56POPC    CB 2866   2.129   5.553   1.131 -0.3862 -0.0458 -0.0077
   56POPC    OA 2867   2.069   5.683   1.132 -0.2550  0.0134  0.2046
   56POPC     P 2868   1.911   5.677   1.099 -0.2218 -0.1288  0.0684
   56POPC    OB 2869   1.846   5.566   1.172 -0.1630 -0.2466 -0.0584
   56POPC    OC 2870   1.888   5.685   0.953  0.9618 -0.4124 -0.1469
   56POPC    OD 2871   1.874   5.821   1.162  0.4229  0.0101  0.1388
   56POPC    CC 2872   1.855   5.817   1.304 -0.6846  0.4739  0.0071
   56POPC    CD 2873   1.965   5.879   1.390 -0.1412  0.1177 -0.4254
   56POPC    OE 2874   1.942   5.841   1.526  0.3158  0.0356 -0.3702
   56POPC   C1A 2875   2.048   5.820   1.604  0.2264 -0.8364 -0.4671
   56POPC    OF 2876   2.158   5.858   1.566  0.1830  0.0805  0.2848
   56POPC   C1B 2877   2.009   5.758   1.733 -0.4862  0.3013 -0.1152
   56POPC   C1C 2878   2.056   5.839   1.854 -0.2419  0.1335 -0.0950
   56POPC   C1D 2879   2.014   5.772   1.985 -0.0324  0.2500  0.0322
   56POPC   C1E 2880   2.105   5.653   2.015  0.3865  0.3304 -0.8764
   56POPC   C1F 2881   2.243   5.691   2.071 -0.0539  0.0690  0.4383
   56POPC   C1G 2882   2.310   5.583   2.156  0.0845  0.0014  0.2464
   56POPC   C1H 2883   2.444   5.626   2.216  0.2007  0.6191 -0.4334
   56POPC   C1I 2884   2.517   5.510   2.285 -0.2225  0.2709 -0.5678
   56POPC   C1J 2885   2.644   5.489   2.254 -0.3034 -0.1799 -0.6033
   56POPC   C1K 2886   2.712   5.579   2.151  0.3732  0.3068  0.2549
   56POPC   C1L 2887   2.865   5.584   2.165  0.4040 -0.3801  0.1923
   56POPC   C1M 2888   2.904   5.672   2.284  0.2745 -0.1719  0.0822
   56POPC   C1N 2889   3.055   5.699   2.277  0.1534  0.6078  0.4632
   56POPC   C1O 2890   3.090   5.773   2.148 -0.0873 -0.0389  0.0265
   56POPC   C1P 2891   3.237   5.814   2.158 -0.0558 -0.2070  0.2685
   56POPC   C1Q 2892   3.260   5.919   2.266 -0.4535 -0.0825  0.2342
   56POPC   C1R 2893   3.210   6.060   2.235 -0.9655 -0.2485  0.2941
   56POPC    CE 2894   1.985   6.025   1.348  0.2335  0.1225 -0.2300
   56POPC    OG 2895   2.087   6.110   1.402  0.0756  0.3450 -0.2832
   56POPC   C2A 2896   2.218   6.101   1.384  0.1466  0.7419  0.0106
   56POPC    OH 2897   2.249   6.044   1.279  0.1139 -0.0445  0.4266
   56POPC   C2B 2898   2.291   6.208   1.456  0.2525  0.5905  0.1291
   56POPC   C2C 2899   2.405   6.151   1.540  0.3636  0.3286 -0.1945
   56POPC   C2D 2900   2.364   6.093   1.676  0.3197  0.6980 -0.0472
   56POPC   C2E 2901   2.319   6.207   1.766 -0.2405  0.3206  0.1541
   56POPC   C2F 2902   2.429   6.310   1.792 -0.3141  0.5132 -0.2833
   56POPC   C2G 2903   2.363   0.077   1.880 -0.1440  0.5642 -0.2170
   56POPC   C2H 2904   2.323   0.029   2.019 -0.1371 -0.3232 -0.5126
   56POPC   C2I 2905   2.445   6.333   2.104 -0.4275  0.2025  0.1449
   56POPC   C2J 2906   2.418   6.280   2.244  0.2718 -0.1774  0.1411
   56POPC   C2K 2907   2.369   6.135   2.251  0.5731 -0.2978 -0.2365
   56POPC   C2L 2908   2.350   6.071   2.388  0.3110  0.5989  0.1547
   56POPC   C2M 2909   2.270   6.149   2.492  0.0538  0.3686  0.1306
   56POPC   C2N 2910   2.211   6.059   2.600  0.0793 -0.0521 -0.2050
   56POPC   C2O 2911   2.109   5.959   2.544 -0.0988  0.0388 -0.0472
   56POPC   C2P 2912   2.062   5.870   2.659  0.7136 -0.3623 -0.0198
   57POPC   CN1 2913   4.013   5.593   1.343 -0.8178 -0.0250  0.0380
   57POPC   CN2 2914   3.866   5.483   1.493 -0.1551 -0.2598  0.3474
   57POPC   CN3 2915   4.030   5.364   1.373 -0.3618 -0.2839  0.3152
   57POPC   NTM 2916   3.930   5.472   1.362 -0.3721 -0.3002  0.2443
   57POPC    CA 2917   3.835   5.453   1.252 -0.1878 -0.1568  0.0565
   57POPC    CB 2918   3.700   5.381   1.266 -0.1530 -0.1717  0.3242
   57POPC    OA 2919   3.717   5.275   1.359  0.3324 -0.5204 -0.1581
   57POPC     P 2920   3.599   5.167   1.342 -0.1046 -0.0668 -0.0132
   57POPC    OB 2921   3.626   5.114   1.207 -0.4250  0.1060 -0.1475
   57POPC    OC 2922   3.470   5.237   1.362 -0.1230  0.0896 -0.6369
   57POPC    OD 2923   3.629   5.051   1.450 -0.0359  0.0239  0.0656
   57POPC    CC 2924   3.579   5.088   1.579 -0.1713  0.0561  0.0043
   57POPC    CD 2925   3.655   5.168   1.684  0.1945 -0.2241 -0.0467
   57POPC    OE 2926   3.746   5.087   1.760  0.2777 -0.3445 -0.2739
   57POPC   C1A 2927   3.872   5.128   1.750 -0.0720  0.9085  0.2006
   57POPC    OF 2928   3.901   5.228   1.685 -0.6903  0.9006 -0.0848
   57POPC   C1B 2929   3.985   5.046   1.802 -0.4857  0.3118  0.1717
   57POPC   C1C 2930   4.020   5.068   1.949 -0.1135  0.2527  0.0915
   57POPC   C1D 2931   3.909   5.028   2.045 -0.1279  0.0521 -0.0075
   57POPC   C1E 2932   3.962   5.073   2.182 -0.2019  0.5810 -0.1488
   57POPC   C1F 2933   3.842   5.110   2.270 -0.1820  0.2480  0.0213
   57POPC   C1G 2934   3.758   5.233   2.237 -0.2304  0.2137  0.0171
   57POPC   C1H 2935   3.641   5.256   2.333  0.0161  0.2556  0.3060
   57POPC   C1I 2936   3.536   5.349   2.272 -0.4423 -0.4110  0.0763
   57POPC   C1J 2937   3.446   5.418   2.341 -0.2590 -0.4264  0.3315
   57POPC   C1K 2938   3.437   5.416   2.494 -0.6738 -0.4998  0.3074
   57POPC   C1L 2939   3.389   5.554   2.539 -0.7155 -0.5298  0.3561
   57POPC   C1M 2940   3.376   5.557   2.691  0.2130 -0.4900  0.4441
   57POPC   C1N 2941   3.327   5.687   2.756  0.0690 -0.0724 -0.4877
   57POPC   C1O 2942   3.198   5.749   2.702 -0.0979  0.1317  0.1442
   57POPC   C1P 2943   3.163   5.879   2.775  0.1454  0.2099  0.1245
   57POPC   C1Q 2944   3.053   5.955   2.701 -0.0016  0.3365  0.4670
   57POPC   C1R 2945   3.011   6.087   2.765  0.0856  0.1998  0.8039
   57POPC    CE 2946   3.543   5.233   1.765 -0.0190 -0.7204  0.0592
   57POPC    OG 2947   3.421   5.162   1.790 -0.3069 -0.0376  0.6447
   57POPC   C2A 2948   3.333   5.240   1.851 -0.1267  0.2564  0.5310
   57POPC    OH 2949   3.346   5.362   1.857 -0.2746  0.3106 -0.2804
   57POPC   C2B 2950   3.223   5.163   1.912 -0.1542 -0.0276  0.1217
   57POPC   C2C 2951   3.234   5.154   2.064  0.2157  0.1158  0.1023
   57POPC   C2D 2952   3.114   5.137   2.158 -0.0103 -0.1078 -0.2256
   57POPC   C2E 2953   3.163   5.115   2.301  0.0689  0.1556 -0.2112
   57POPC   C2F 2954   3.053   5.163   2.397  0.1949  0.7557 -0.3604
   57POPC   C2G 2955   3.077   5.150   2.548  0.0389  0.4814 -0.3577
   57POPC   C2H 2956   3.026   5.273   2.624  0.8136  0.4118  0.2902
   57POPC   C2I 2957   3.056   5.272   2.774  0.0370 -0.7598  0.4554
   57POPC   C2J 2958   3.003   5.396   2.847  0.3584  0.0085 -0.5816
   57POPC   C2K 2959   3.068   5.405   2.985  0.0467  0.0081 -0.4331
   57POPC   C2L 2960   3.015   5.504   3.089  0.2963 -0.0085 -0.2902
   57POPC   C2M 2961   3.042   5.645   3.034  0.2895  0.1703  0.1616
   57POPC   C2N 2962   2.977   5.736   3.139 -0.4959 -0.3833  0.1614
   57POPC   C2O 2963   3.016   5.883   3.131 -0.0359 -0.4830  0.5579
   57POPC   C2P 2964   3.152   5.908   3.197 -0.1364 -0.1729  0.6500
   58POPC   CN1 2965   0.230   4.775   1.165 -0.7066  0.3648 -0.0774
   58POPC   CN2 2966   0.385   4.946   1.239 -0.0324 -0.1073 -0.3400
   58POPC   CN3 2967   0.165   4.997   1.152 -0.2921 -0.2651  0.8222
   58POPC   NTM 2968   0.283   4.910   1.140 -0.1282  0.0961 -0.3159
   58POPC    CA 2969   0.330   4.919   1.001 -0.3300  0.4745 -0.3614
   58POPC    CB 2970   0.402   5.044   0.949 -0.0145  0.3056 -0.3319
   58POPC    OA 2971   0.317   5.158   0.962 -0.1521  0.1186  0.5371
   58POPC     P 2972   0.365   5.278   0.866 -0.2112 -0.3446 -0.0763
   58POPC    OB 2973   0.252   5.369   0.836  0.1857  0.2497  0.2029
   58POPC    OC 2974   0.448   5.227   0.754 -0.0603  0.2036 -0.2188
   58POPC    OD 2975   0.456   5.366   0.966  0.0205 -0.2337 -0.3810
   58POPC    CC 2976   0.385   5.433   1.071  0.7523 -0.2683  0.1365
   58POPC    CD 2977   0.364   5.351   1.198 -0.3823  0.2081  0.2654
   58POPC    OE 2978   0.246   5.381   1.274 -0.6564 -0.2449  0.0292
   58POPC   C1A 2979   0.207   5.297   1.369 -0.5007 -0.2847  0.0578
   58POPC    OF 2980   0.244   5.180   1.367 -0.5138 -0.2890  0.0521
   58POPC   C1B 2981   0.098   5.353   1.452 -0.1248  0.0682  0.3204
   58POPC   C1C 2982   0.141   5.410   1.588  0.4387  0.2173  0.0801
   58POPC   C1D 2983   0.179   5.306   1.694  0.1238  0.0553  0.0351
   58POPC   C1E 2984   0.289   5.343   1.794  0.0213 -0.1881  0.2358
   58POPC   C1F 2985   0.257   5.453   1.896  0.2296  0.1210 -0.0315
   58POPC   C1G 2986   0.157   5.437   2.010  0.0010 -0.2450 -0.2784
   58POPC   C1H 2987   0.171   5.557   2.104 -0.7074  0.0385 -0.5275
   58POPC   C1I 2988   0.079   5.525   2.222  0.2895 -1.2961 -0.0904
   58POPC   C1J 2989   0.123   5.518   2.347 -0.6478  0.6830  0.3919
   58POPC   C1K 2990   0.275   5.533   2.361 -0.5430 -0.2161  0.3275
   58POPC   C1L 2991   0.326   5.645   2.452  0.3643 -0.6243  0.3289
   58POPC   C1M 2992   0.284   5.636   2.599  0.2340  0.0227  0.3349
   58POPC   C1N 2993   0.320   5.750   2.694 -0.3431  0.2495  0.2844
   58POPC   C1O 2994   0.278   5.889   2.644 -0.3788  0.2706  0.3717
   58POPC   C1P 2995   0.254   5.989   2.757  0.1566 -0.1090  0.8278
   58POPC   C1Q 2996   0.262   6.129   2.696  0.4510 -0.3464  0.3134
   58POPC   C1R 2997   0.251   6.226   2.815 -0.8146 -0.2594  0.1400
   58POPC    CE 2998   0.495   5.355   1.277 -0.3393 -0.2215  0.2213
   58POPC    OG 2999   0.562   5.479   1.304 -0.1246 -0.4332  0.6732
   58POPC   C2A 3000   0.688   5.483   1.264 -0.2862  0.2101  0.2157
   58POPC    OH 3001   0.725   5.413   1.170 -0.5199 -0.1286  0.3767
   58POPC   C2B 3002   0.770   5.595   1.317  0.2289 -0.0373 -0.0458
   58POPC   C2C 3003   0.876   5.570   1.425  0.0322 -0.1634  0.1200
   58POPC   C2D 3004   0.935   5.688   1.502 -0.1146 -0.3223  0.4770
   58POPC   C2E 3005   1.034   5.775   1.424  0.0128 -0.5267  0.4112
   58POPC   C2F 3006   1.088   5.871   1.530  0.2609 -0.3855  0.1579
   58POPC   C2G 3007   1.177   5.980   1.469 -0.0023  0.0325  0.5130
   58POPC   C2H 3008   1.319   5.929   1.445  0.0548  0.2828  0.3226
   58POPC   C2I 3009   1.382   5.884   1.576  0.8245  0.3175 -0.0268
   58POPC   C2J 3010   1.526   5.845   1.540  0.7233 -0.2417  0.1592
   58POPC   C2K 3011   1.605   5.793   1.660  0.6453 -0.1479  0.2521
   58POPC   C2L 3012   1.591   5.878   1.786 -0.0028  0.2022 -0.0529
   58POPC   C2M 3013   1.630   5.792   1.907  0.1657  0.2355 -0.0840
   58POPC   C2N 3014   1.645   5.883   2.028 -0.2456 -0.2539  0.3405
   58POPC   C2O 3015   1.527   5.949   2.102 -0.5159 -0.3715  0.0170
   58POPC   C2P 3016   1.571   6.090   2.142 -0.1932 -0.4618 -0.0099
   59POPC   CN1 3017   0.110   5.671   0.992  0.2817 -0.1944  0.3171
   59POPC   CN2 3018   6.300   5.624   1.189 -0.1406 -0.2128 -0.0595
   59POPC   CN3 3019   6.289   5.475   0.992 -0.6808  0.0304  0.0864
   59POPC   NTM 3020   6.295   5.612   1.043 -0.0092  0.0675 -0.0874
   59POPC    CA 3021   6.189   5.697   0.986 -0.2630 -0.2630 -0.1095
   59POPC    CB 3022   6.184   5.848   1.013 -0.0683 -0.3099  0.1928
   59POPC    OA 3023   6.138   5.873   1.146  0.3532  0.3424  0.2181
   59POPC     P 3024   5.987   5.930   1.153  0.2797  0.1551  0.1563
   59POPC    OB 3025   5.942   5.982   1.023 -0.6986  0.0399  0.4463
   59POPC    OC 3026   6.010   6.029   1.261  0.1114 -0.1223  0.4515
   59POPC    OD 3027   5.890   5.812   1.205  0.0362  0.4563  0.3895
   59POPC    CC 3028   5.966   5.726   1.291 -0.4669 -0.2866  0.1011
   59POPC    CD 3029   5.884   5.604   1.334  0.4078 -0.6740  0.6843
   59POPC    OE 3030   5.845   5.514   1.230 -0.0690 -0.1710  0.4252
   59POPC   C1A 3031   5.924   5.419   1.180 -0.2104 -0.1131  0.0910
   59POPC    OF 3032   6.045   5.440   1.175 -0.1920 -0.1556  0.3299
   59POPC   C1B 3033   5.852   5.326   1.091 -0.3719  0.2589 -0.1695
   59POPC   C1C 3034   5.760   5.233   1.169  0.1275  0.0295  0.1500
   59POPC   C1D 3035   5.657   5.166   1.078 -0.0937  0.5211  0.0344
   59POPC   C1E 3036   5.553   5.109   1.175  0.3424  0.0034  0.2042
   59POPC   C1F 3037   5.435   5.196   1.221  0.2450 -0.0251  0.0099
   59POPC   C1G 3038   5.405   5.197   1.371  0.5129  0.2802  0.0634
   59POPC   C1H 3039   5.504   5.293   1.437  0.6420  0.3335 -0.2064
   59POPC   C1I 3040   5.507   5.263   1.587  0.4294  0.2980 -0.2081
   59POPC   C1J 3041   5.625   5.255   1.647  0.1484 -0.7520  0.2219
   59POPC   C1K 3042   5.748   5.250   1.556 -0.1981 -0.6294 -0.2581
   59POPC   C1L 3043   5.876   5.235   1.640 -0.0689 -0.3713 -0.4069
   59POPC   C1M 3044   5.924   5.355   1.720  0.1727 -0.4847 -0.3800
   59POPC   C1N 3045   6.052   5.331   1.801  0.1945  0.4229 -0.1256
   59POPC   C1O 3046   6.100   5.458   1.870  0.2024  0.2086  0.2694
   59POPC   C1P 3047   6.164   5.564   1.779  0.5090 -0.0362  0.1980
   59POPC   C1Q 3048   6.217   5.685   1.856  0.2182  0.1877  0.0453
   59POPC   C1R 3049   6.299   5.759   1.749  0.2252 -0.1814 -0.2055
   59POPC    CE 3050   5.770   5.668   1.413  0.3965 -0.5683  0.5816
   59POPC    OG 3051   5.802   5.708   1.546  0.3554 -0.2065  0.4846
   59POPC   C2A 3052   5.721   5.794   1.607  0.2022  0.5681 -0.7865
   59POPC    OH 3053   5.626   5.843   1.545 -0.1442  0.7837 -0.0934
   59POPC   C2B 3054   5.764   5.823   1.745  0.0411 -0.3990 -0.5300
   59POPC   C2C 3055   5.718   5.718   1.847 -0.0262 -0.3241 -0.4830
   59POPC   C2D 3056   5.795   5.756   1.973  0.2270 -0.6668 -0.5310
   59POPC   C2E 3057   5.838   5.629   2.046  0.5529 -0.1870  0.1332
   59POPC   C2F 3058   5.922   5.649   2.172  0.2202  0.2330  0.2881
   59POPC   C2G 3059   5.933   5.513   2.243 -0.1183  0.1740  0.2337
   59POPC   C2H 3060   6.048   5.509   2.344  0.4999  0.0368 -0.4620
   59POPC   C2I 3061   6.003   5.596   2.461  0.7646  0.6400 -0.8023
   59POPC   C2J 3062   6.100   5.596   2.580 -0.2794  0.1603  0.0593
   59POPC   C2K 3063   6.081   5.714   2.676 -0.1719  0.2744 -0.0598
   59POPC   C2L 3064   6.184   5.725   2.788 -0.2387 -0.5643  0.0927
   59POPC   C2M 3065   6.182   5.870   2.836 -0.9404 -0.5286 -0.0328
   59POPC   C2N 3066   6.231   5.866   2.982  0.6533  0.5744 -0.5091
   59POPC   C2O 3067   6.205   5.997   3.057 -0.1280  0.1606 -0.0474
   59POPC   C2P 3068   6.263   5.987   3.198 -0.6556 -0.4643  0.1329
   60POPC   CN1 3069   0.507   1.856   1.294  0.2730 -0.1426 -0.4454
   60POPC   CN2 3070   0.286   1.763   1.329  0.2544 -0.4624  0.2847
   60POPC   CN3 3071   0.480   1.635   1.378 -0.0871 -0.5303 -0.1432
   60POPC   NTM 3072   0.424   1.735   1.286  0.2473 -0.1577  0.0582
   60POPC    CA 3073   0.404   1.670   1.156  0.0765  0.5418 -0.2702
   60POPC    CB 3074   0.526   1.608   1.086 -0.3209 -0.2169 -0.2944
   60POPC    OA 3075   0.641   1.691   1.069 -0.3077 -0.1416  0.1388
   60POPC     P 3076   0.773   1.600   1.067 -0.0436  0.2473 -0.3419
   60POPC    OB 3077   0.878   1.671   0.990 -0.2745  0.7904 -0.1576
   60POPC    OC 3078   0.738   1.458   1.039 -0.4792  0.1874  0.4877
   60POPC    OD 3079   0.810   1.604   1.223 -0.0780  0.2136 -0.3328
   60POPC    CC 3080   0.905   1.708   1.249  0.3879 -0.3308  0.1805
   60POPC    CD 3081   0.933   1.732   1.397 -0.1787  0.1312  0.2151
   60POPC    OE 3082   0.994   1.860   1.414 -0.0276  0.1825 -0.6740
   60POPC   C1A 3083   0.921   1.958   1.466 -0.0813  0.1390 -0.6673
   60POPC    OF 3084   0.798   1.958   1.466 -0.0859 -0.3919 -0.4691
   60POPC   C1B 3085   1.004   2.075   1.505 -0.3406  0.0022  0.3279
   60POPC   C1C 3086   1.090   2.053   1.629  0.2524  0.1869 -0.0438
   60POPC   C1D 3087   1.004   2.018   1.751  0.4221 -0.0982 -0.0058
   60POPC   C1E 3088   1.088   1.978   1.874 -0.2387  0.2581  0.5686
   60POPC   C1F 3089   1.007   1.938   1.997 -0.3488 -0.4288  0.2824
   60POPC   C1G 3090   1.118   1.904   2.097 -0.1645  0.6918  0.4730
   60POPC   C1H 3091   1.051   1.878   2.232 -0.7259  0.3520  0.1324
   60POPC   C1I 3092   1.157   1.896   2.341 -0.9574  0.8192  0.2814
   60POPC   C1J 3093   1.187   1.801   2.429 -0.2500  0.0235 -0.7986
   60POPC   C1K 3094   1.126   1.663   2.404 -0.4515 -0.0192 -0.0916
   60POPC   C1L 3095   1.107   1.583   2.532  0.2286  0.1433  0.1130
   60POPC   C1M 3096   1.212   1.472   2.530 -0.5308 -0.5854  0.1617
   60POPC   C1N 3097   1.206   1.371   2.645  0.1042 -0.4738  0.3001
   60POPC   C1O 3098   1.306   1.259   2.615 -0.0829 -0.6351  0.2671
   60POPC   C1P 3099   1.446   1.321   2.619 -0.3927  0.1519 -0.5507
   60POPC   C1Q 3100   1.549   1.210   2.595 -0.5236 -0.0386 -0.2382
   60POPC   C1R 3101   1.694   1.258   2.606 -0.4045 -0.4872  0.2044
   60POPC    CE 3102   0.980   1.595   1.446 -0.4589 -0.2274 -0.5033
   60POPC    OG 3103   0.997   1.580   1.588 -0.2042  0.0089 -0.5084
   60POPC   C2A 3104   1.013   1.456   1.633  0.6778  0.1051 -0.5286
   60POPC    OH 3105   0.981   1.352   1.575  0.0551 -0.5712  0.9642
   60POPC   C2B 3106   1.058   1.444   1.774 -0.1735  0.1173 -0.2493
   60POPC   C2C 3107   1.009   1.316   1.842 -0.1985  0.2682  0.0178
   60POPC   C2D 3108   1.109   1.201   1.841 -0.2234  0.2464  0.0118
   60POPC   C2E 3109   1.053   1.073   1.904  0.9790 -0.4059 -0.2047
   60POPC   C2F 3110   0.933   1.015   1.829  0.0693  0.5243  0.4993
   60POPC   C2G 3111   0.894   0.888   1.906 -0.2799  0.3042 -0.0433
   60POPC   C2H 3112   0.832   0.926   2.041  0.3827 -0.6031  0.5220
   60POPC   C2I 3113   0.762   0.801   2.095 -0.2075 -0.5488 -0.1069
   60POPC   C2J 3114   0.760   0.832   2.245  0.0715 -0.5413 -0.1044
   60POPC   C2K 3115   0.693   0.721   2.325  0.3857 -0.4567  0.2775
   60POPC   C2L 3116   0.540   0.729   2.316  0.4016 -0.1054  0.3113
   60POPC   C2M 3117   0.489   0.596   2.371  0.2124 -0.3561 -0.4620
   60POPC   C2N 3118   0.506   0.585   2.522 -0.2317  0.6040 -0.3366
   60POPC   C2O 3119   0.429   0.698   2.591 -0.3089  0.2928  0.0955
   60POPC   C2P 3120   0.481   0.711   2.734 -0.0846  0.6775 -0.0171
   61POPC   CN1 3121   3.795   2.268   1.167  0.2269  0.3155 -0.1321
   61POPC   CN2 3122   3.879   2.053   1.118  0.0390 -0.1758  0.1774
   61POPC   CN3 3123   3.685   2.127   1.004  0.2356 -0.0833 -0.0120
   61POPC   NTM 3124   3.755   2.131   1.133  0.2932  0.2769 -0.0544
   61POPC    CA 3125   3.681   2.066   1.242  0.1901 -0.3107 -0.4666
   61POPC    CB 3126   3.592   1.943   1.227 -0.4315  0.0629  0.1045
   61POPC    OA 3127   3.655   1.825   1.177  0.1455  0.3535  0.1435
   61POPC     P 3128   3.552   1.713   1.126  0.4205  0.0663  0.2109
   61POPC    OB 3129   3.614   1.586   1.086  0.0663 -0.1967  0.4883
   61POPC    OC 3130   3.476   1.788   1.023  0.5791 -0.1211 -0.0443
   61POPC    OD 3131   3.458   1.699   1.256 -0.3143 -0.2709 -0.3458
   61POPC    CC 3132   3.524   1.617   1.353  0.3701  0.6993  0.0323
   61POPC    CD 3133   3.495   1.632   1.502  0.1919 -0.4459  0.1236
   61POPC    OE 3134   3.591   1.573   1.590  0.2217 -0.5567  0.0158
   61POPC   C1A 3135   3.712   1.623   1.616  0.1472  0.0591 -0.7842
   61POPC    OF 3136   3.764   1.712   1.550 -0.0600  0.6364 -0.1816
   61POPC   C1B 3137   3.792   1.559   1.723 -0.4621  0.4002 -0.1108
   61POPC   C1C 3138   3.732   1.596   1.859 -0.3049  0.4319 -0.0501
   61POPC   C1D 3139   3.830   1.689   1.931  0.0975 -0.0234  0.0002
   61POPC   C1E 3140   3.759   1.764   2.044 -0.1861  0.2178 -0.3348
   61POPC   C1F 3141   3.852   1.848   2.131  0.1638 -0.5548  0.0432
   61POPC   C1G 3142   3.780   1.926   2.241 -0.5307 -0.2986 -0.5889
   61POPC   C1H 3143   3.666   1.856   2.316  0.0488 -0.4493  0.1545
   61POPC   C1I 3144   3.634   1.929   2.446  0.0735 -0.4793  0.1774
   61POPC   C1J 3145   3.518   1.930   2.511 -0.0325  0.0091 -0.0182
   61POPC   C1K 3146   3.395   1.855   2.459 -0.0655 -0.0856  0.1961
   61POPC   C1L 3147   3.291   1.815   2.563 -0.0710  0.2268  0.3134
   61POPC   C1M 3148   3.211   1.931   2.624 -0.5501  0.1399 -0.1441
   61POPC   C1N 3149   3.099   1.872   2.710 -0.2016 -0.4276 -0.0705
   61POPC   C1O 3150   3.010   1.977   2.776  0.4545  0.0135  0.1210
   61POPC   C1P 3151   2.996   1.964   2.928  0.1479 -0.1131  0.0825
   61POPC   C1Q 3152   2.861   2.012   2.981  0.1322 -0.0207 -0.0422
   61POPC   C1R 3153   2.739   1.961   2.904 -0.2160  0.6595  0.0479
   61POPC    CE 3154   3.353   1.579   1.522  0.0224 -0.0553 -0.0321
   61POPC    OG 3155   3.299   1.564   1.654 -0.3713 -0.0522 -0.1926
   61POPC   C2A 3156   3.255   1.673   1.716  0.0797 -0.0599  0.1426
   61POPC    OH 3157   3.194   1.761   1.656  0.5243 -0.0837 -0.3453
   61POPC   C2B 3158   3.239   1.638   1.859  0.3209 -0.3604  0.0968
   61POPC   C2C 3159   3.364   1.676   1.938  0.1964 -0.1229  0.1820
   61POPC   C2D 3160   3.349   1.661   2.089 -0.3249 -0.2781  0.1177
   61POPC   C2E 3161   3.332   1.515   2.130 -1.1702 -0.1266  0.3205
   61POPC   C2F 3162   3.340   1.500   2.282  0.4173  0.0460  0.2739
   61POPC   C2G 3163   3.322   1.353   2.323  0.3085 -0.0130  0.0155
   61POPC   C2H 3164   3.376   1.332   2.464  0.1036  0.4903  0.1705
   61POPC   C2I 3165   3.271   1.381   2.564 -0.1965  0.0849  0.0549
   61POPC   C2J 3166   3.331   1.403   2.702  0.3648  0.7572 -0.2913
   61POPC   C2K 3167   3.236   1.445   2.814  0.3528  0.4021 -0.1670
   61POPC   C2L 3168   3.309   1.472   2.946  0.3406  0.1981 -0.1183
   61POPC   C2M 3169   3.356   1.618   2.943 -0.8733  0.6100  0.0931
   61POPC   C2N 3170   3.467   1.635   3.046 -0.4466 -0.1269 -0.2310
   61POPC   C2O 3171   3.534   1.772   3.062  0.4151 -0.5453 -0.1666
   61POPC   C2P 3172   3.592   1.819   2.928  0.3604  0.4722  0.1602
   62POPC   CN1 3173   5.580   5.893   1.224  0.0402 -0.3313  0.1039
   62POPC   CN2 3174   5.638   6.083   1.360  0.3421  0.0115 -0.6054
   62POPC   CN3 3175   5.426   6.074   1.260  0.2561 -0.4833  0.1027
   62POPC   NTM 3176   5.567   6.039   1.239  0.2344 -0.2531 -0.4454
   62POPC    CA 3177   5.615   6.111   1.121  0.3862 -0.1136 -0.2989
   62POPC    CB 3178   5.611   6.262   1.097 -0.2551 -0.0731  0.0464
   62POPC    OA 3179   5.679   0.009   1.188  0.0745 -0.2724 -0.0062
   62POPC     P 3180   5.580   0.132   1.220  0.1360 -0.2212 -0.0133
   62POPC    OB 3181   5.464   0.068   1.285 -0.3766  0.3957 -0.3124
   62POPC    OC 3182   5.576   0.212   1.095  0.3478 -0.6299 -0.2825
   62POPC    OD 3183   5.673   0.212   1.324  0.4492  0.0670 -0.5089
   62POPC    CC 3184   5.679   0.137   1.445  0.0032  0.1479 -0.4345
   62POPC    CD 3185   5.738   0.209   1.566 -0.2647 -0.1923 -0.0984
   62POPC    OE 3186   5.793   0.122   1.665 -0.0458 -0.5473 -0.5284
   62POPC   C1A 3187   5.911   0.069   1.631  0.2047 -0.2051 -0.2010
   62POPC    OF 3188   5.969   0.123   1.537  0.4157  0.6441  0.3973
   62POPC   C1B 3189   5.975   6.322   1.732  0.0057  0.0506  0.1528
   62POPC   C1C 3190   5.937   6.174   1.718 -0.1246  0.0919  0.0651
   62POPC   C1D 3191   6.002   6.115   1.592 -0.1815  0.4523 -0.1366
   62POPC   C1E 3192   6.154   6.100   1.596 -0.2643 -0.3723  0.1759
   62POPC   C1F 3193   6.220   6.114   1.459 -0.1262  0.3836  0.3171
   62POPC   C1G 3194   0.063   6.113   1.465 -0.1135  0.1111 -0.0116
   62POPC   C1H 3195   0.124   6.236   1.532  0.4705 -0.1971  0.0296
   62POPC   C1I 3196   0.276   6.232   1.522  0.4573  0.0492 -0.2788
   62POPC   C1J 3197   0.347   6.252   1.633 -0.6316  0.3279  0.3752
   62POPC   C1K 3198   0.290   6.278   1.772  0.1319  0.3996  0.6766
   62POPC   C1L 3199   0.315   6.150   1.853  0.0142 -0.0648 -0.0128
   62POPC   C1M 3200   0.251   6.156   1.992 -0.5934 -0.3828 -0.2755
   62POPC   C1N 3201   0.297   6.035   2.073  0.2954  0.1957  0.1041
   62POPC   C1O 3202   0.250   6.035   2.218 -0.4389  0.4265 -0.1282
   62POPC   C1P 3203   0.097   6.029   2.227 -0.4403  0.4585 -0.1285
   62POPC   C1Q 3204   0.047   5.885   2.219  0.0238  0.2944 -0.1510
   62POPC   C1R 3205   6.206   5.891   2.243  0.0179  0.1981 -0.1591
   62POPC    CE 3206   5.643   0.313   1.624  0.1843  0.2712 -0.1894
   62POPC    OG 3207   5.506   0.280   1.648  0.2010  0.3497  0.0231
   62POPC   C2A 3208   5.413   0.374   1.632 -0.1599 -0.0264 -0.1195
   62POPC    OH 3209   5.439   0.481   1.577  0.3901  0.1416  0.4610
   62POPC   C2B 3210   5.277   0.330   1.669 -0.1267 -0.1181 -0.1058
   62POPC   C2C 3211   5.215   0.421   1.775 -0.1191 -0.0113 -0.1928
   62POPC   C2D 3212   5.217   0.382   1.923 -0.1055 -0.0451 -0.2020
   62POPC   C2E 3213   5.151   0.248   1.956  0.1271 -0.0523  0.2447
   62POPC   C2F 3214   5.207   0.201   2.090  0.0128  0.0356  0.3231
   62POPC   C2G 3215   5.162   0.059   2.125 -0.3171 -0.0764 -0.5323
   62POPC   C2H 3216   5.015   0.051   2.169 -0.2064  0.4736 -0.0456
   62POPC   C2I 3217   5.010   0.026   2.320 -0.1626  0.6838 -0.0080
   62POPC   C2J 3218   4.867   0.023   2.376 -0.1777  0.1531 -0.0622
   62POPC   C2K 3219   4.851   6.332   2.525  0.0046 -0.4199 -0.1601
   62POPC   C2L 3220   4.874   0.118   2.608  0.0295 -0.3574 -0.2601
   62POPC   C2M 3221   4.849   0.106   2.759  0.0663 -0.4937 -0.2647
   62POPC   C2N 3222   4.921   0.213   2.842 -0.3828  0.0002 -0.5018
   62POPC   C2O 3223   4.902   0.214   2.994 -0.0303 -0.9068 -0.4454
   62POPC   C2P 3224   4.982   0.103   3.064  0.5618 -0.1258  0.1350
   63POPC   CN1 3225   1.924   6.074   0.953 -0.0735 -0.4001  0.1142
   63POPC   CN2 3226   2.070   6.098   0.767  0.1222  0.0734 -0.1861
   63POPC   CN3 3227   2.128   5.944   0.931  0.1587  0.2453  0.0220
   63POPC   NTM 3228   2.066   6.076   0.913 -0.1658  0.0616 -0.1969
   63POPC    CA 3229   2.133   6.182   0.989  0.1133  0.3482 -0.8354
   63POPC    CB 3230   2.285   6.192   0.978  0.2716 -1.1112 -0.1896
   63POPC    OA 3231   2.335   6.246   0.855 -0.4597  0.2724  0.0938
   63POPC     P 3232   2.309   0.063   0.830 -0.1411  0.2497 -0.3829
   63POPC    OB 3233   2.411   0.111   0.734 -0.1164  0.2029 -0.3803
   63POPC    OC 3234   2.287   0.117   0.966  0.1041  0.0569 -0.2650
   63POPC    OD 3235   2.167   0.064   0.755 -0.1567  0.2511 -0.3532
   63POPC    CC 3236   2.127   0.200   0.776  0.1084  0.2693  0.0392
   63POPC    CD 3237   1.986   0.235   0.728  0.0123 -0.1649 -0.0046
   63POPC    OE 3238   1.959   0.372   0.697  0.6496 -0.0010  0.1601
   63POPC   C1A 3239   2.004   0.435   0.588  0.3044  0.0366  0.0390
   63POPC    OF 3240   2.108   0.402   0.532  0.0936 -0.2284 -0.1957
   63POPC   C1B 3241   1.949   0.572   0.578  0.0370 -0.0658  0.0938
   63POPC   C1C 3242   2.043   0.684   0.624 -1.2259  0.7898  0.6542
   63POPC   C1D 3243   2.118   0.726   0.497 -0.4920 -0.1045  0.7847
   63POPC   C1E 3244   2.228   0.817   0.552  0.5267 -0.9459  0.1797
   63POPC   C1F 3245   2.300   0.904   0.449 -0.5905 -0.1247  0.0751
   63POPC   C1G 3246   2.337   1.039   0.510 -0.2198 -0.1304 -0.1326
   63POPC   C1H 3247   2.227   1.145   0.510  0.4812  0.6053 -0.2179
   63POPC   C1I 3248   2.281   1.266   0.586  0.0817  0.7918 -0.2294
   63POPC   C1J 3249   2.206   1.328   0.676  0.0457 -0.1103  0.3715
   63POPC   C1K 3250   2.064   1.285   0.711 -0.1366  0.0155 -0.2111
   63POPC   C1L 3251   1.977   1.404   0.751 -0.2102  0.1101 -0.6509
   63POPC   C1M 3252   1.849   1.351   0.816  0.2994  0.0177  0.2910
   63POPC   C1N 3253   1.878   1.278   0.947 -0.0767 -0.4364  0.1249
   63POPC   C1O 3254   1.752   1.229   1.018  0.0407 -0.8573  0.0430
   63POPC   C1P 3255   1.783   1.189   1.162  0.1055  0.2535  0.3391
   63POPC   C1Q 3256   1.684   1.082   1.208  0.1839  0.1361  0.2311
   63POPC   C1R 3257   1.682   1.071   1.361  0.4071  0.2095  0.2398
   63POPC    CE 3258   1.901   0.183   0.844  0.1904 -0.2086  0.1061
   63POPC    OG 3259   1.941   0.217   0.977 -0.0600 -0.0933  0.1534
   63POPC   C2A 3260   1.932   0.132   1.079  0.3593 -0.0369  0.2395
   63POPC    OH 3261   1.887   0.019   1.064 -0.8691  0.3445  0.9032
   63POPC   C2B 3262   1.956   0.208   1.204 -0.0387  0.2088  0.1688
   63POPC   C2C 3263   2.105   0.238   1.225  0.0585 -0.2685  0.1752
   63POPC   C2D 3264   2.143   0.251   1.372  0.0174 -0.3122  0.1896
   63POPC   C2E 3265   2.076   0.370   1.439  0.0826 -0.0624 -0.1922
   63POPC   C2F 3266   2.124   0.387   1.583 -0.3254  0.3987 -0.1065
   63POPC   C2G 3267   1.998   0.389   1.670 -0.3436  0.5706 -0.1358
   63POPC   C2H 3268   2.013   0.461   1.804  0.3865 -0.3915  0.3136
   63POPC   C2I 3269   1.873   0.490   1.860  0.2336 -0.0830 -0.2239
   63POPC   C2J 3270   1.882   0.575   1.987 -0.4597  0.2077 -0.3650
   63POPC   C2K 3271   1.744   0.617   2.038 -0.2653 -0.1863  0.4844
   63POPC   C2L 3272   1.755   0.689   2.173 -0.0599  0.2465  0.2355
   63POPC   C2M 3273   1.744   0.579   2.278 -0.2641 -0.1308 -0.1745
   63POPC   C2N 3274   1.812   0.624   2.408  0.8995 -0.2006 -0.7489
   63POPC   C2O 3275   1.789   0.506   2.502 -0.2718  0.5949 -0.0033
   63POPC   C2P 3276   1.835   0.528   2.646  0.0546  0.2310 -0.0476
   64POPC   CN1 3277   5.596   1.390   0.882  0.6248 -0.7075  0.4542
   64POPC   CN2 3278   5.581   1.524   1.076  0.3003  0.3184 -0.1138
   64POPC   CN3 3279   5.536   1.614   0.854 -0.4386 -0.1449  0.3946
   64POPC   NTM 3280   5.620   1.525   0.935 -0.0371 -0.3209 -0.2167
   64POPC    CA 3281   5.763   1.558   0.926 -0.2156  0.4591 -0.2041
   64POPC    CB 3282   5.816   1.693   0.976  0.0271  0.4639 -0.4689
   64POPC    OA 3283   5.741   1.806   0.931 -0.9231  0.0264 -0.0077
   64POPC     P 3284   5.768   1.947   1.004 -0.1737 -0.2561  0.2675
   64POPC    OB 3285   5.691   2.060   0.947  0.4776 -0.1150 -0.3522
   64POPC    OC 3286   5.908   1.971   1.045 -0.1248  0.2608 -0.1922
   64POPC    OD 3287   5.689   1.909   1.139 -0.5742  0.3851  0.2151
   64POPC    CC 3288   5.552   1.950   1.139 -0.6681  0.0823 -0.1909
   64POPC    CD 3289   5.452   1.855   1.207 -0.2714 -0.0589  0.2022
   64POPC    OE 3290   5.313   1.860   1.175 -0.2512  0.0225  0.1277
   64POPC   C1A 3291   5.259   1.795   1.072 -0.0511  0.5250 -0.3028
   64POPC    OF 3292   5.326   1.727   0.996  0.2685  0.5208 -0.0193
   64POPC   C1B 3293   5.112   1.812   1.060 -0.1172  0.5350  0.4519
   64POPC   C1C 3294   5.045   1.680   1.100  0.1315  0.2187 -0.1659
   64POPC   C1D 3295   5.006   1.678   1.248  0.0127  0.3038 -0.1963
   64POPC   C1E 3296   4.966   1.542   1.304 -0.2834  0.5042  0.0828
   64POPC   C1F 3297   4.946   1.553   1.455  0.5098 -0.4407  0.2707
   64POPC   C1G 3298   4.816   1.621   1.500  0.5930  0.1611 -0.3790
   64POPC   C1H 3299   4.782   1.612   1.649 -0.6050 -0.1568 -0.6680
   64POPC   C1I 3300   4.654   1.693   1.667 -0.0477  0.5663  0.0943
   64POPC   C1J 3301   4.626   1.744   1.787  0.3790  0.0166  0.4310
   64POPC   C1K 3302   4.728   1.739   1.901  0.2529  0.0002  0.5419
   64POPC   C1L 3303   4.672   1.650   2.013 -0.3089 -0.4225 -0.0637
   64POPC   C1M 3304   4.769   1.649   2.132 -0.2243  0.2867 -0.1233
   64POPC   C1N 3305   4.777   1.780   2.212 -0.1694  0.2288 -0.0343
   64POPC   C1O 3306   4.824   1.741   2.352 -0.0931 -0.0044 -0.1239
   64POPC   C1P 3307   4.810   1.858   2.449  0.2455  0.2745 -0.4096
   64POPC   C1Q 3308   4.802   1.836   2.600  0.1571  0.5996 -0.3666
   64POPC   C1R 3309   4.931   1.766   2.641 -0.3927 -0.0209  0.3512
   64POPC    CE 3310   5.503   1.841   1.350 -0.0679 -0.3806  0.0979
   64POPC    OG 3311   5.534   1.964   1.417  0.2379 -0.4209  0.0305
   64POPC   C2A 3312   5.567   1.963   1.546 -0.1957 -0.2799  0.1426
   64POPC    OH 3313   5.641   1.876   1.592 -0.1012 -0.1317  0.2720
   64POPC   C2B 3314   5.519   2.086   1.612  0.0472  0.0333 -0.2577
   64POPC   C2C 3315   5.462   2.057   1.751 -0.3438  0.2279 -0.3749
   64POPC   C2D 3316   5.567   2.051   1.862 -0.3610  0.0671 -0.3662
   64POPC   C2E 3317   5.519   2.023   2.005  0.1014  0.1968 -0.1834
   64POPC   C2F 3318   5.637   2.013   2.103  0.0001  0.2736 -0.0540
   64POPC   C2G 3319   5.577   2.001   2.243  0.1466  0.1939  0.0014
   64POPC   C2H 3320   5.691   2.016   2.343  0.3150  0.2313 -0.1957
   64POPC   C2I 3321   5.656   1.977   2.487  0.4343  0.3720 -0.1286
   64POPC   C2J 3322   5.761   2.025   2.588  0.7001  0.3036 -0.3707
   64POPC   C2K 3323   5.747   2.177   2.591 -0.4878  0.1944  0.1437
   64POPC   C2L 3324   5.831   2.239   2.703 -0.3096 -0.1975  0.2268
   64POPC   C2M 3325   5.736   2.246   2.823 -0.1133 -0.8868  0.4331
   64POPC   C2N 3326   5.798   2.313   2.945  0.1965 -0.1777 -0.1036
   64POPC   C2O 3327   5.948   2.298   2.972  0.3137  0.3527 -0.4481
   64POPC   C2P 3328   5.978   2.366   3.106 -0.3755  0.1643 -0.1905
   65POPC   CN1 3329   3.022   4.303   4.990  0.0967 -0.2184 -0.3721
   65POPC   CN2 3330   2.804   4.374   4.925 -0.0649  0.0030  0.5627
   65POPC   CN3 3331   2.934   4.499   5.084 -0.4473  0.0062 -0.0755
   65POPC   NTM 3332   2.897   4.364   5.039  0.2882 -0.3099  0.2476
   65POPC    CA 3333   2.845   4.283   5.150 -0.2030 -0.5221 -0.1319
   65POPC    CB 3334   2.834   4.130   5.147 -0.8302 -0.4801 -0.0661
   65POPC    OA 3335   2.961   4.068   5.126 -0.3848  0.3899 -0.0209
   65POPC     P 3336   2.938   3.917   5.075 -0.0434  0.1368  0.5655
   65POPC    OB 3337   2.797   3.896   5.033  0.1699  0.5708 -0.3778
   65POPC    OC 3338   3.020   3.821   5.153 -0.1891 -0.5020 -0.0589
   65POPC    OD 3339   3.006   3.915   4.929 -0.2717  0.0642  0.4598
   65POPC    CC 3340   2.930   3.988   4.833  0.3025  0.0238 -0.0292
   65POPC    CD 3341   2.989   3.986   4.692  0.1297 -0.1919 -0.0983
   65POPC    OE 3342   2.913   4.076   4.610  0.1135  0.1097  0.2449
   65POPC   C1A 3343   2.922   4.208   4.618 -0.4162  0.1381  0.3713
   65POPC    OF 3344   3.000   4.262   4.696  0.0923 -0.5675  0.3521
   65POPC   C1B 3345   2.825   4.279   4.531  0.1651  0.2324 -0.2045
   65POPC   C1C 3346   2.894   4.345   4.412  0.2323  0.6847  0.0871
   65POPC   C1D 3347   2.901   4.249   4.293  0.1647  0.5223  0.2145
   65POPC   C1E 3348   2.955   4.332   4.177 -0.2705 -0.2509 -0.5502
   65POPC   C1F 3349   3.108   4.343   4.180 -0.3286  0.4793  0.1462
   65POPC   C1G 3350   3.164   4.442   4.077  0.2180  0.0178 -0.0063
   65POPC   C1H 3351   3.312   4.406   4.062  0.2358  0.1189 -0.0721
   65POPC   C1I 3352   3.386   4.522   3.996 -0.2362  0.5428  0.1388
   65POPC   C1J 3353   3.495   4.489   3.927 -0.0833  0.0915  0.5936
   65POPC   C1K 3354   3.526   4.341   3.905 -0.5314  0.0859  0.0016
   65POPC   C1L 3355   3.550   4.299   3.760 -0.4896  0.6730 -0.1668
   65POPC   C1M 3356   3.414   4.279   3.692 -0.5655  0.1744  0.1277
   65POPC   C1N 3357   3.435   4.231   3.548  0.0477  0.6135  0.0674
   65POPC   C1O 3358   3.303   4.238   3.472 -0.1841 -0.2807  0.3769
   65POPC   C1P 3359   3.328   4.221   3.322  0.0410 -0.0118  0.3842
   65POPC   C1Q 3360   3.374   4.077   3.299  0.5489  0.1647  0.2627
   65POPC   C1R 3361   3.365   4.054   3.148  0.1461 -0.2432  0.3443
   65POPC    CE 3362   2.989   3.841   4.641  0.0237  0.0425 -0.7849
   65POPC    OG 3363   2.861   3.783   4.615 -0.1066  0.1159 -0.3187
   65POPC   C2A 3364   2.817   3.805   4.492 -0.2789 -0.7475 -0.4167
   65POPC    OH 3365   2.892   3.787   4.396  0.4522 -0.4831  0.0983
   65POPC   C2B 3366   2.671   3.820   4.475 -0.2893 -0.1848  0.1368
   65POPC   C2C 3367   2.642   3.967   4.445 -0.1169 -0.2657 -0.4310
   65POPC   C2D 3368   2.495   3.997   4.411 -0.1587 -0.3613 -0.3366
   65POPC   C2E 3369   2.488   4.128   4.332  0.0674 -0.3819 -0.3917
   65POPC   C2F 3370   2.351   4.183   4.293 -0.2437 -0.2950  0.7832
   65POPC   C2G 3371   2.255   4.094   4.213 -0.4403  0.5453  0.0653
   65POPC   C2H 3372   2.284   4.071   4.065 -0.1160  0.5347  0.1287
   65POPC   C2I 3373   2.157   4.031   3.988  0.3185  0.1807 -0.4086
   65POPC   C2J 3374   2.167   4.017   3.836  0.2977 -0.0617 -0.3878
   65POPC   C2K 3375   2.028   3.993   3.775  0.1067  0.4219 -0.1476
   65POPC   C2L 3376   2.051   3.980   3.625  0.5625  0.3953 -0.0771
   65POPC   C2M 3377   1.922   3.997   3.546  0.3111 -0.4059  0.1514
   65POPC   C2N 3378   1.932   4.001   3.393 -0.4809 -0.2219  0.0983
   65POPC   C2O 3379   2.006   3.880   3.336 -0.3475 -0.1760  0.1754
   65POPC   C2P 3380   1.941   3.743   3.357 -0.2383 -0.1338  0.8242
   66POPC   CN1 3381   2.957   3.450   4.377 -0.2527 -0.0216 -0.0547
   66POPC   CN2 3382   2.884   3.481   4.591 -0.3384  0.1874 -0.2815
   66POPC   CN3 3383   3.108   3.388   4.564 -0.1975 -0.0277  0.4636
   66POPC   NTM 3384   2.971   3.393   4.511 -0.0225  0.2207  0.0251
   66POPC    CA 3385   2.904   3.262   4.504  0.1979  0.0700  0.6685
   66POPC    CB 3386   2.869   3.172   4.622  0.0557 -0.2880  0.3543
   66POPC    OA 3387   2.802   3.235   4.732  0.0450  0.0659  0.1433
   66POPC     P 3388   2.709   3.124   4.803 -0.0735  0.0844  0.0194
   66POPC    OB 3389   2.666   3.174   4.935 -0.1781  0.4124 -0.1388
   66POPC    OC 3390   2.774   2.993   4.781 -0.1052  0.1351 -0.3775
   66POPC    OD 3391   2.590   3.116   4.696 -0.6906  0.3196  0.6804
   66POPC    CC 3392   2.520   3.236   4.662 -0.1128  0.3600 -0.4347
   66POPC    CD 3393   2.458   3.228   4.522 -0.1570  0.0248 -0.3969
   66POPC    OE 3394   2.434   3.352   4.455 -0.1363  0.0642 -0.3319
   66POPC   C1A 3395   2.526   3.393   4.369  0.4511  0.3336  0.4150
   66POPC    OF 3396   2.641   3.349   4.369  0.4084  0.2096 -0.1351
   66POPC   C1B 3397   2.490   3.524   4.311  1.0664  0.2550 -0.1609
   66POPC   C1C 3398   2.453   3.501   4.164  0.4028  0.0028  0.0389
   66POPC   C1D 3399   2.410   3.619   4.077 -0.0675  0.2245  0.5728
   66POPC   C1E 3400   2.524   3.721   4.075  0.2648 -0.1572 -0.0995
   66POPC   C1F 3401   2.532   3.789   3.938 -0.1538  0.4648  0.1801
   66POPC   C1G 3402   2.609   3.921   3.946  0.2805  0.2421 -0.2419
   66POPC   C1H 3403   2.756   3.895   3.916  0.3137  0.1095  0.0383
   66POPC   C1I 3404   2.852   4.003   3.967  0.6211 -0.1123 -0.0693
   66POPC   C1J 3405   2.983   3.984   3.953  0.6156  0.1414 -0.4531
   66POPC   C1K 3406   3.033   3.848   3.905 -0.3528 -0.4715  0.2495
   66POPC   C1L 3407   3.138   3.867   3.795  0.0018 -0.5319  0.5769
   66POPC   C1M 3408   3.152   3.742   3.708  0.3398 -0.5375  0.6352
   66POPC   C1N 3409   3.249   3.767   3.593 -0.4240 -0.3314  0.0283
   66POPC   C1O 3410   3.199   3.717   3.457  0.4747  0.0225 -0.4414
   66POPC   C1P 3411   3.087   3.795   3.387 -0.1021  0.4052  0.8684
   66POPC   C1Q 3412   3.029   3.711   3.273  0.6816  0.4417  0.4315
   66POPC   C1R 3413   2.930   3.789   3.185  0.6370  0.0604  0.1422
   66POPC    CE 3414   2.332   3.151   4.561  0.1139 -0.4396 -0.4268
   66POPC    OG 3415   2.236   3.119   4.459 -0.1391 -0.0647 -0.3079
   66POPC   C2A 3416   2.151   3.218   4.437 -0.0286  0.1620  0.2722
   66POPC    OH 3417   2.108   3.281   4.535 -0.5696 -0.4907  0.4598
   66POPC   C2B 3418   2.077   3.201   4.310 -0.2433  0.3450  0.3709
   66POPC   C2C 3419   2.106   3.320   4.218  0.8811 -0.3451 -0.1898
   66POPC   C2D 3420   2.078   3.291   4.071  0.2284  0.3458 -0.2092
   66POPC   C2E 3421   2.091   3.420   3.989 -0.4752  0.4381 -0.1798
   66POPC   C2F 3422   2.106   3.398   3.839  0.1912  0.0122 -0.0523
   66POPC   C2G 3423   2.145   3.517   3.752  0.0158 -0.1876 -0.4070
   66POPC   C2H 3424   2.173   3.482   3.605 -0.6055  0.2396 -0.6320
   66POPC   C2I 3425   2.260   3.595   3.551  0.0636  0.0433  0.0108
   66POPC   C2J 3426   2.401   3.537   3.561 -0.0217 -0.1004  0.3912
   66POPC   C2K 3427   2.512   3.635   3.523 -0.2238  0.2052  0.5832
   66POPC   C2L 3428   2.655   3.590   3.555 -0.0471  0.2056 -0.1890
   66POPC   C2M 3429   2.687   3.548   3.699  0.2121  0.2371 -0.2372
   66POPC   C2N 3430   2.831   3.497   3.713  0.1780  0.1607 -0.1637
   66POPC   C2O 3431   2.846   3.444   3.856  0.6685  0.6828 -0.0174
   66POPC   C2P 3432   2.970   3.355   3.841  0.2910  0.2051 -0.3394
   67POPC   CN1 3433   2.779   0.438   4.668  0.4938  0.2496 -0.2640
   67POPC   CN2 3434   2.548   0.440   4.611  0.1472  0.2462 -0.0205
   67POPC   CN3 3435   2.630   0.550   4.811 -0.3607 -0.1104 -0.2920
   67POPC   NTM 3436   2.643   0.432   4.724  0.4823 -0.0088 -0.3174
   67POPC    CA 3437   2.635   0.300   4.788 -0.0000  0.2813  0.2274
   67POPC    CB 3438   2.515   0.275   4.880  0.0733 -0.0388  0.2360
   67POPC    OA 3439   2.386   0.311   4.829  0.2149  0.0863 -0.0372
   67POPC     P 3440   2.271   0.339   4.938  0.1266  0.1426 -0.1445
   67POPC    OB 3441   2.293   0.485   4.948  0.3716  0.1091 -0.1777
   67POPC    OC 3442   2.292   0.236   5.042 -0.1425 -0.1942 -0.4209
   67POPC    OD 3443   2.154   0.288   4.841 -0.1557  0.0959  0.2161
   67POPC    CC 3444   2.097   0.392   4.761  0.0300  0.2131  0.2358
   67POPC    CD 3445   2.162   0.412   4.624 -0.0189  0.0341  0.1862
   67POPC    OE 3446   2.120   0.531   4.557 -0.4797 -0.0817  0.2653
   67POPC   C1A 3447   2.181   0.558   4.442 -0.2204 -0.2309  0.3660
   67POPC    OF 3448   2.303   0.568   4.442 -0.2163 -0.1222 -0.5990
   67POPC   C1B 3449   2.095   0.638   4.351 -0.3287 -0.2215  0.4769
   67POPC   C1C 3450   2.021   0.549   4.251  0.1996 -0.0456 -0.0764
   67POPC   C1D 3451   1.938   0.637   4.158 -0.1269 -0.4263 -0.1493
   67POPC   C1E 3452   1.947   0.603   4.009 -0.5254 -0.4335 -0.1747
   67POPC   C1F 3453   1.877   0.708   3.923  0.1559  0.4048  0.2662
   67POPC   C1G 3454   1.904   0.675   3.775 -0.3099 -0.2468  0.3186
   67POPC   C1H 3455   1.851   0.769   3.667 -0.0389 -0.2279  0.2006
   67POPC   C1I 3456   1.955   0.880   3.655  0.5890 -0.8055  0.2729
   67POPC   C1J 3457   1.995   0.934   3.540 -0.3577 -0.2081  0.2163
   67POPC   C1K 3458   1.958   0.867   3.407 -0.0902  0.4055 -0.1727
   67POPC   C1L 3459   1.926   0.958   3.288 -0.4536  0.1347 -0.2844
   67POPC   C1M 3460   1.843   0.887   3.182 -0.0132 -0.4663 -0.2281
   67POPC   C1N 3461   1.830   0.976   3.058  0.1548  0.2573  0.2740
   67POPC   C1O 3462   1.741   0.930   2.943  0.2730  0.4407  0.1082
   67POPC   C1P 3463   1.594   0.935   2.985  0.2686  0.3054  0.1078
   67POPC   C1Q 3464   1.509   0.817   2.938  0.3603  0.2169  0.1649
   67POPC   C1R 3465   1.357   0.832   2.950  0.3649  0.4744 -0.0950
   67POPC    CE 3466   2.163   0.275   4.557 -0.4893  0.1358 -0.0354
   67POPC    OG 3467   2.045   0.214   4.504 -0.1979 -0.3449 -0.1441
   67POPC   C2A 3468   2.058   0.086   4.474 -0.0115 -0.3065 -0.2257
   67POPC    OH 3469   2.147   0.026   4.534 -0.0618  0.3385  0.5029
   67POPC   C2B 3470   1.941   0.020   4.413 -0.2636  0.1624 -0.2496
   67POPC   C2C 3471   1.929   0.054   4.264  0.7655  0.1083 -0.3495
   67POPC   C2D 3472   1.835   0.171   4.237  0.1171 -0.3884 -0.2682
   67POPC   C2E 3473   1.804   0.196   4.089  0.3534  0.2267 -0.2149
   67POPC   C2F 3474   1.691   0.288   4.042  0.0984  0.0702  0.0888
   67POPC   C2G 3475   1.713   0.327   3.896 -0.6351  0.2281  0.0167
   67POPC   C2H 3476   1.591   0.388   3.827 -0.3028  1.0190  0.1297
   67POPC   C2I 3477   1.644   0.428   3.689  0.0432  0.1192 -0.0055
   67POPC   C2J 3478   1.532   0.477   3.597  0.0212 -0.1581 -0.1276
   67POPC   C2K 3479   1.592   0.514   3.461 -0.0090 -0.6220 -0.2683
   67POPC   C2L 3480   1.489   0.543   3.352 -0.4188  0.1527  0.3089
   67POPC   C2M 3481   1.429   0.413   3.297  0.1189  0.1529 -0.2951
   67POPC   C2N 3482   1.453   0.403   3.146 -0.0862  0.0122 -0.3195
   67POPC   C2O 3483   1.335   0.469   3.075 -0.4002  0.0358  0.2145
   67POPC   C2P 3484   1.370   0.448   2.927 -0.5625  0.3741  0.1262
   68POPC   CN1 3485   1.198   2.168   4.940 -0.2429  0.3137  0.2620
   68POPC   CN2 3486   1.021   2.285   4.841 -0.4698  0.4238  0.1987
   68POPC   CN3 3487   1.235   2.269   4.731  0.0246 -0.5649  0.4029
   68POPC   NTM 3488   1.167   2.288   4.861 -0.4444  0.1310  0.0605
   68POPC    CA 3489   1.204   2.408   4.937 -0.4784 -0.0685  0.3935
   68POPC    CB 3490   1.174   2.552   4.893 -0.1963 -0.2635 -0.4564
   68POPC    OA 3491   1.239   2.583   4.769  0.0414  0.0514 -0.2546
   68POPC     P 3492   1.200   2.730   4.718 -0.2317 -0.0320 -0.2846
   68POPC    OB 3493   1.307   2.771   4.625 -0.3719  0.7382 -0.1124
   68POPC    OC 3494   1.147   2.821   4.823  0.2325  0.0750 -0.1436
   68POPC    OD 3495   1.072   2.676   4.635 -0.0511 -0.0940 -0.5239
   68POPC    CC 3496   1.100   2.650   4.498 -0.2543  0.0416 -0.5913
   68POPC    CD 3497   1.035   2.524   4.439 -0.2012 -0.2562 -0.0134
   68POPC    OE 3498   1.062   2.487   4.304 -0.5675 -0.0795 -0.1372
   68POPC   C1A 3499   1.177   2.422   4.284 -0.2279  0.3598  0.3699
   68POPC    OF 3500   1.252   2.396   4.378 -0.2578 -0.3117  0.2073
   68POPC   C1B 3501   1.204   2.389   4.143 -0.4883 -0.3605  0.4890
   68POPC   C1C 3502   1.246   2.242   4.142  0.3863 -0.1116  0.2208
   68POPC   C1D 3503   1.247   2.184   4.000 -0.4861 -0.3186  0.2978
   68POPC   C1E 3504   1.311   2.045   4.001  0.2283  0.0107  0.4708
   68POPC   C1F 3505   1.283   1.971   3.870 -0.0488  0.1957  0.4248
   68POPC   C1G 3506   1.352   1.836   3.890 -0.0965  0.1167  0.0722
   68POPC   C1H 3507   1.331   1.745   3.770  0.0166  0.1814  0.0027
   68POPC   C1I 3508   1.372   1.602   3.803 -0.1090  0.1785  0.1466
   68POPC   C1J 3509   1.320   1.493   3.747  0.0593  0.0939  0.1543
   68POPC   C1K 3510   1.233   1.503   3.622  0.3601 -0.0079 -0.0667
   68POPC   C1L 3511   1.294   1.429   3.503  0.4780 -0.1764  0.0981
   68POPC   C1M 3512   1.200   1.417   3.382  0.0352 -0.1595  0.4398
   68POPC   C1N 3513   1.097   1.307   3.408 -0.0537 -0.0339  0.6286
   68POPC   C1O 3514   0.978   1.314   3.311  0.3136  0.2950  0.1945
   68POPC   C1P 3515   0.981   1.224   3.188 -0.1079  0.5041  0.0316
   68POPC   C1Q 3516   0.845   1.246   3.121 -0.0967  0.1697 -0.1047
   68POPC   C1R 3517   0.839   1.173   2.987  0.6046 -0.1081  0.0144
   68POPC    CE 3518   0.887   2.555   4.461 -0.1144  0.0512  0.1480
   68POPC    OG 3519   0.836   2.678   4.409 -0.1457 -0.0388 -0.0331
   68POPC   C2A 3520   0.705   2.699   4.419 -0.1763  0.0024 -0.4792
   68POPC    OH 3521   0.643   2.616   4.486  0.2247  0.4221  0.4240
   68POPC   C2B 3522   0.647   2.823   4.363  0.1583  0.2306 -0.3278
   68POPC   C2C 3523   0.513   2.792   4.296  0.2277 -0.0332 -0.3468
   68POPC   C2D 3524   0.430   2.904   4.233  0.2611  0.1414 -0.0809
   68POPC   C2E 3525   0.505   3.006   4.146 -0.1734  0.4602 -0.0872
   68POPC   C2F 3526   0.395   3.074   4.066 -0.0616 -0.0945 -0.7229
   68POPC   C2G 3527   0.427   3.210   4.002 -0.2088  0.2092 -0.1596
   68POPC   C2H 3528   0.499   3.202   3.867  0.0383 -0.1518 -0.0094
   68POPC   C2I 3529   0.435   3.300   3.769 -0.4649 -0.5702 -0.1036
   68POPC   C2J 3530   0.506   3.290   3.634 -0.0888  0.5793 -0.0016
   68POPC   C2K 3531   0.429   3.181   3.561  0.0422  0.4100  0.1111
   68POPC   C2L 3532   0.465   3.176   3.412 -0.1460  0.2302  0.0701
   68POPC   C2M 3533   0.388   3.065   3.341  0.8456 -0.3981 -0.0406
   68POPC   C2N 3534   0.466   3.051   3.210 -0.1164 -0.0266 -0.6690
   68POPC   C2O 3535   0.379   2.951   3.135 -0.5490  0.1784 -0.4435
   68POPC   C2P 3536   0.447   2.928   3.000  0.9817 -0.1544  0.3599
   69POPC   CN1 3537   4.664   4.739   4.569 -0.2735  0.5676  0.8021
   69POPC   CN2 3538   4.640   4.686   4.796  0.3931  0.3634 -0.4204
   69POPC   CN3 3539   4.828   4.603   4.678 -0.0914 -0.2979  0.0327
   69POPC   NTM 3540   4.685   4.631   4.667 -0.0903 -0.3987 -0.2678
   69POPC    CA 3541   4.610   4.516   4.616 -0.3655 -0.1940 -0.3305
   69POPC    CB 3542   4.457   4.511   4.605 -0.4596  0.6305  0.5359
   69POPC    OA 3543   4.393   4.613   4.528  0.2823  0.0321 -0.9096
   69POPC     P 3544   4.261   4.551   4.462 -0.0498 -0.4617  0.1954
   69POPC    OB 3545   4.186   4.533   4.589  0.1152 -0.5097  0.2854
   69POPC    OC 3546   4.294   4.435   4.377 -0.1568 -0.2658 -0.1153
   69POPC    OD 3547   4.239   4.688   4.380  0.1582 -0.3324  0.3556
   69POPC    CC 3548   4.318   4.700   4.261  0.0358  0.3007  0.3367
   69POPC    CD 3549   4.431   4.802   4.247  0.2034  0.1568  0.6157
   69POPC    OE 3550   4.384   4.930   4.201  0.4387 -0.2219 -0.7436
   69POPC   C1A 3551   4.363   5.021   4.296 -0.3873 -0.5717 -0.5889
   69POPC    OF 3552   4.371   4.998   4.417  0.8208  0.0407 -0.5450
   69POPC   C1B 3553   4.311   5.149   4.243 -0.4899 -0.3404  0.0588
   69POPC   C1C 3554   4.161   5.169   4.260 -0.4359 -0.0441  0.1879
   69POPC   C1D 3555   4.092   5.302   4.227 -0.0098  0.1040 -0.1046
   69POPC   C1E 3556   4.148   5.410   4.320  0.1140  0.0903 -0.1632
   69POPC   C1F 3557   4.045   5.522   4.332  0.4356  0.3679  0.0334
   69POPC   C1G 3558   4.075   5.620   4.445  0.2650  0.8048 -0.2940
   69POPC   C1H 3559   3.967   5.728   4.446 -0.3688  0.1736  0.3460
   69POPC   C1I 3560   4.010   5.846   4.534  0.1865 -0.0436  0.3680
   69POPC   C1J 3561   4.045   5.955   4.467  0.0865 -0.1402  0.1565
   69POPC   C1K 3562   4.015   5.965   4.317  0.0246  0.4186  0.2013
   69POPC   C1L 3563   4.138   6.014   4.241 -0.1253  0.0045 -0.3188
   69POPC   C1M 3564   4.101   6.028   4.093 -0.0906  0.1354 -0.3161
   69POPC   C1N 3565   4.127   5.894   4.024 -0.4827 -0.1345  0.0520
   69POPC   C1O 3566   4.074   5.878   3.881  0.0451 -0.7723 -0.0798
   69POPC   C1P 3567   4.137   5.975   3.782  0.8741 -0.8953  0.3189
   69POPC   C1Q 3568   4.073   5.949   3.645  0.0624  0.3242  0.4537
   69POPC   C1R 3569   4.086   6.056   3.537 -0.3065  0.1933  0.2794
   69POPC    CE 3570   4.523   4.755   4.134 -0.4750  0.1114  0.0681
   69POPC    OG 3571   4.548   4.614   4.129  0.1346  0.2345 -0.5463
   69POPC   C2A 3572   4.650   4.563   4.198 -0.2414 -0.0435 -0.1881
   69POPC    OH 3573   4.732   4.631   4.258  0.0505 -0.2696 -0.3294
   69POPC   C2B 3574   4.646   4.415   4.207  0.0456 -0.0652 -0.4109
   69POPC   C2C 3575   4.741   4.331   4.122  0.6278  0.6416 -0.4732
   69POPC   C2D 3576   4.694   4.330   3.977  0.4159  0.3818 -0.4025
   69POPC   C2E 3577   4.781   4.244   3.885 -0.5454 -0.4405 -0.5653
   69POPC   C2F 3578   4.717   4.271   3.749 -0.3031  0.5614 -0.4911
   69POPC   C2G 3579   4.788   4.186   3.643  0.2597  0.4678 -0.0378
   69POPC   C2H 3580   4.733   4.219   3.505 -0.5713  0.2370  0.2333
   69POPC   C2I 3581   4.783   4.155   3.375 -0.1260  0.6501  0.1982
   69POPC   C2J 3582   4.740   4.239   3.254 -0.2384  0.0231 -0.2024
   69POPC   C2K 3583   4.768   4.152   3.132 -0.1314  0.0480 -0.1959
   69POPC   C2L 3584   4.907   4.176   3.071  0.0828 -0.0665  0.2438
   69POPC   C2M 3585   4.940   4.073   2.963  0.1344  0.5796 -0.3615
   69POPC   C2N 3586   4.867   4.117   2.836  0.3702  0.3853 -0.5650
   69POPC   C2O 3587   4.885   4.028   2.713 -0.4047 -0.7412  0.1148
   69POPC   C2P 3588   5.029   4.035   2.662 -0.2721  0.3554  0.6106
   70POPC   CN1 3589   2.890   3.417   5.090  0.0461  0.0059  0.3982
   70POPC   CN2 3590   2.741   3.549   4.971  0.1151  0.1676 -0.0646
   70POPC   CN3 3591   2.767   3.573   5.218 -1.2895  0.6461 -0.4803
   70POPC   NTM 3592   2.759   3.484   5.102  0.0090  0.0289 -0.1192
   70POPC    CA 3593   2.657   3.384   5.136  0.3384 -0.1406  0.3880
   70POPC    CB 3594   2.510   3.426   5.122  0.2077 -0.4756  0.7333
   70POPC    OA 3595   2.447   3.515   5.215 -0.5184 -0.5137  0.2849
   70POPC     P 3596   2.344   3.607   5.133 -0.0976 -0.1125  0.2057
   70POPC    OB 3597   2.229   3.661   5.208 -0.4220 -0.3416 -0.1247
   70POPC    OC 3598   2.300   3.551   5.003 -0.6963  0.5430  0.1144
   70POPC    OD 3599   2.450   3.722   5.093 -0.0835 -0.2714 -0.2162
   70POPC    CC 3600   2.391   3.850   5.072  0.9055  0.2444  0.0717
   70POPC    CD 3601   2.487   3.937   4.991  0.6703  0.2531 -0.1994
   70POPC    OE 3602   2.423   4.064   4.968 -0.2202 -0.1812 -0.1803
   70POPC   C1A 3603   2.496   4.160   4.912 -0.3008 -0.0020  0.0229
   70POPC    OF 3604   2.618   4.144   4.899 -0.3094  0.0681 -0.1378
   70POPC   C1B 3605   2.416   4.281   4.886 -0.0600  0.2317  0.3602
   70POPC   C1C 3606   2.323   4.281   4.765  0.6002 -0.2160 -0.1536
   70POPC   C1D 3607   2.288   4.427   4.738  0.4158 -0.2805 -0.2652
   70POPC   C1E 3608   2.389   4.523   4.675  0.0565  0.3052  0.0307
   70POPC   C1F 3609   2.433   4.495   4.531  0.2320  0.2745  0.0893
   70POPC   C1G 3610   2.490   4.616   4.456  0.9207 -0.1490 -0.0761
   70POPC   C1H 3611   2.546   4.580   4.318  0.3412  0.2834 -0.4268
   70POPC   C1I 3612   2.599   4.700   4.240  0.8509  0.2758 -0.0985
   70POPC   C1J 3613   2.623   4.695   4.109  0.0347 -0.1570 -0.2388
   70POPC   C1K 3614   2.636   4.567   4.026  0.4346 -0.5473  0.4170
   70POPC   C1L 3615   2.744   4.582   3.919  0.4413 -0.2144  0.4699
   70POPC   C1M 3616   2.757   4.437   3.873 -0.0150 -0.0527 -0.1823
   70POPC   C1N 3617   2.864   4.444   3.763  0.3561 -0.0519  0.1756
   70POPC   C1O 3618   2.908   4.310   3.703  0.0600  0.0805 -0.3424
   70POPC   C1P 3619   2.786   4.243   3.638 -0.1850  0.0396  0.1488
   70POPC   C1Q 3620   2.838   4.128   3.551 -0.4541 -0.4713  0.6621
   70POPC   C1R 3621   2.723   4.069   3.469 -0.0389 -0.4624  0.0690
   70POPC    CE 3622   2.532   3.855   4.871  0.1001  0.1137 -0.3218
   70POPC    OG 3623   2.421   3.791   4.808  0.1633  0.1575 -0.4802
   70POPC   C2A 3624   2.436   3.675   4.745 -0.0855 -0.1096 -0.0592
   70POPC    OH 3625   2.545   3.619   4.754 -0.2550 -0.3599  0.4485
   70POPC   C2B 3626   2.309   3.628   4.686  0.0434  0.0377 -0.4616
   70POPC   C2C 3627   2.282   3.690   4.549 -0.1093 -0.0526 -0.4734
   70POPC   C2D 3628   2.143   3.656   4.496 -0.1831 -0.2103 -0.1762
   70POPC   C2E 3629   2.113   3.713   4.358  0.1741  0.5367  0.0482
   70POPC   C2F 3630   1.969   3.678   4.317  0.2242  0.3177  0.0562
   70POPC   C2G 3631   1.942   3.733   4.177  0.8959 -0.1478 -0.2647
   70POPC   C2H 3632   1.802   3.690   4.131  0.8997  0.1876 -0.6009
   70POPC   C2I 3633   1.763   3.766   4.005 -0.3101  0.1794 -0.2431
   70POPC   C2J 3634   1.613   3.740   3.996 -0.3083 -0.0778  0.4495
   70POPC   C2K 3635   1.571   3.799   3.861  0.6774 -0.1281  0.1168
   70POPC   C2L 3636   1.641   3.734   3.742  0.1205 -0.1537 -0.1980
   70POPC   C2M 3637   1.605   3.587   3.720  0.4295 -0.2567 -0.0289
   70POPC   C2N 3638   1.684   3.555   3.593  1.1074  0.1231  0.2945
   70POPC   C2O 3639   1.680   3.402   3.582  0.5551  0.1107  0.6567
   70POPC   C2P 3640   1.790   3.337   3.499 -0.5065 -0.2563 -0.4885
   71POPC   CN1 3641   0.635   2.868   4.735 -0.4753 -0.2004  0.2631
   71POPC   CN2 3642   0.846   2.971   4.730  0.0737 -0.1267  0.1341
   71POPC   CN3 3643   0.799   2.806   4.898  0.6594  0.5107  0.3357
   71POPC   NTM 3644   0.743   2.918   4.821 -0.1375 -0.2115 -0.1508
   71POPC    CA 3645   0.699   3.018   4.919  0.2001  0.0368 -0.2495
   71POPC    CB 3646   0.597   3.126   4.884  0.3483 -0.0077 -0.8326
   71POPC    OA 3647   0.464   3.081   4.858  0.1584  0.2457 -0.3216
   71POPC     P 3648   0.353   3.197   4.846 -0.0301  0.0822 -0.1776
   71POPC    OB 3649   0.364   3.288   4.962 -0.2030 -0.3558  0.1869
   71POPC    OC 3650   0.230   3.122   4.812  0.0417 -0.1731  0.1241
   71POPC    OD 3651   0.414   3.278   4.721  0.0785 -0.1951 -0.3057
   71POPC    CC 3652   0.329   3.260   4.607  0.0339 -0.1874 -0.2738
   71POPC    CD 3653   0.396   3.231   4.472  0.0095 -0.3746 -0.2455
   71POPC    OE 3654   0.526   3.288   4.456 -0.1562  0.1436  0.1949
   71POPC   C1A 3655   0.634   3.236   4.513 -0.3747  0.1995  0.6609
   71POPC    OF 3656   0.633   3.114   4.534 -0.1883  0.0816  0.0151
   71POPC   C1B 3657   0.749   3.327   4.501 -0.3785  0.1266  0.0554
   71POPC   C1C 3658   0.819   3.324   4.364 -0.3417 -0.3439  0.0859
   71POPC   C1D 3659   0.882   3.186   4.345 -0.0358 -0.1923  0.0095
   71POPC   C1E 3660   0.895   3.139   4.200 -0.1674  0.3029 -0.1651
   71POPC   C1F 3661   0.948   2.995   4.208 -0.1812  0.2931 -0.2440
   71POPC   C1G 3662   0.997   2.960   4.068 -0.1212 -0.0868 -0.1281
   71POPC   C1H 3663   1.066   2.824   4.068  0.1726  0.0631 -0.0334
   71POPC   C1I 3664   0.956   2.718   4.059  0.3412 -0.1006 -0.2164
   71POPC   C1J 3665   0.977   2.621   3.971  0.1638 -0.5832  0.2665
   71POPC   C1K 3666   1.099   2.617   3.878  0.0657 -0.2071  0.1215
   71POPC   C1L 3667   1.068   2.534   3.754  0.0007 -0.0353  0.0224
   71POPC   C1M 3668   1.198   2.510   3.678 -0.0564  0.2911 -0.1819
   71POPC   C1N 3669   1.176   2.448   3.540  0.8319 -0.2810 -0.0743
   71POPC   C1O 3670   1.125   2.305   3.560  0.0883  0.0304  0.2749
   71POPC   C1P 3671   1.088   2.234   3.430 -0.5044  0.3763  0.2521
   71POPC   C1Q 3672   1.029   2.094   3.450 -0.3075  0.2159 -0.2736
   71POPC   C1R 3673   1.131   2.013   3.529 -0.1256  0.1869 -0.5348
   71POPC    CE 3674   0.298   3.244   4.355  0.0495  0.7212 -0.1734
   71POPC    OG 3675   0.204   3.351   4.351 -0.5475  0.2166  0.0526
   71POPC   C2A 3676   0.122   3.365   4.247 -0.1887 -0.0491 -0.2705
   71POPC    OH 3677   0.109   3.268   4.172  0.0358 -0.3486  0.0759
   71POPC   C2B 3678   0.054   3.496   4.261  0.2556  0.1067  0.4707
   71POPC   C2C 3679   0.143   3.611   4.212  0.0018  0.0415 -0.1482
   71POPC   C2D 3680   0.151   3.620   4.059  0.3763  0.1659 -0.1234
   71POPC   C2E 3681   0.042   3.709   3.999  0.1145  0.0165  0.1257
   71POPC   C2F 3682   0.070   3.856   4.030 -0.3410  0.1120  0.0941
   71POPC   C2G 3683   0.207   3.909   3.989 -0.4271  0.5734  0.3902
   71POPC   C2H 3684   0.219   4.059   4.015 -0.1848  0.5853  0.2151
   71POPC   C2I 3685   0.131   4.136   3.916 -0.1172 -0.1027 -0.3866
   71POPC   C2J 3686   0.183   4.118   3.773  0.2325  0.4094 -0.3285
   71POPC   C2K 3687   0.092   4.179   3.667 -0.1967 -0.1121 -0.2672
   71POPC   C2L 3688   6.284   4.087   3.637 -0.6401  0.3661 -0.0098
   71POPC   C2M 3689   6.178   4.168   3.562 -0.5862 -0.1928 -0.6972
   71POPC   C2N 3690   6.148   4.310   3.609  0.3583 -0.0229 -0.5905
   71POPC   C2O 3691   6.052   4.373   3.508  0.5097  0.5914 -0.3556
   71POPC   C2P 3692   6.020   4.509   3.572 -0.7715 -0.0201  0.3289
   72POPC   CN1 3693   3.605   2.194   4.899 -0.2369  0.1465  0.0696
   72POPC   CN2 3694   3.752   2.383   4.945 -0.3147 -0.1999  0.0100
   72POPC   CN3 3695   3.777   2.263   4.746 -0.3315  0.2759 -0.1267
   72POPC   NTM 3696   3.741   2.248   4.887 -0.1296 -0.1595 -0.1206
   72POPC    CA 3697   3.846   2.166   4.949  0.1682  0.0640 -0.3266
   72POPC    CB 3698   3.894   2.029   4.901  0.0788 -0.0792 -0.0110
   72POPC    OA 3699   3.787   1.958   4.838  0.2299  0.2679 -0.6781
   72POPC     P 3700   3.820   1.801   4.820 -0.0470  0.1661 -0.3221
   72POPC    OB 3701   3.696   1.729   4.785  0.1930 -0.2768 -0.2644
   72POPC    OC 3702   3.900   1.754   4.936 -0.4505  0.1453 -0.0503
   72POPC    OD 3703   3.907   1.809   4.685 -0.0859 -0.3638 -0.3786
   72POPC    CC 3704   3.824   1.846   4.574 -0.3005 -0.2638 -0.1849
   72POPC    CD 3705   3.903   1.922   4.467 -0.3069 -0.1825 -0.1321
   72POPC    OE 3706   3.813   1.987   4.377  0.3248  0.1331 -0.5490
   72POPC   C1A 3707   3.814   2.119   4.382 -0.0164  0.1459 -0.7319
   72POPC    OF 3708   3.894   2.186   4.449 -1.1797  0.6684  0.1638
   72POPC   C1B 3709   3.714   2.190   4.300 -0.4567 -0.2159 -0.5108
   72POPC   C1C 3710   3.747   2.321   4.228  0.2058  0.0753  0.3131
   72POPC   C1D 3711   3.640   2.378   4.136  0.5505 -0.1568 -0.2348
   72POPC   C1E 3712   3.606   2.281   4.023 -0.4063 -0.0960 -0.0058
   72POPC   C1F 3713   3.725   2.277   3.927 -0.2537  0.4491  0.1593
   72POPC   C1G 3714   3.725   2.162   3.826 -0.0166  0.3028  0.3247
   72POPC   C1H 3715   3.595   2.146   3.746  0.2125  0.4514 -0.0772
   72POPC   C1I 3716   3.566   2.251   3.639  0.5546 -0.2589 -0.8771
   72POPC   C1J 3717   3.520   2.206   3.522 -0.4644 -0.0784 -0.5568
   72POPC   C1K 3718   3.497   2.055   3.520 -0.3642 -0.1009 -0.1918
   72POPC   C1L 3719   3.412   1.997   3.407  0.1776 -0.2833 -0.5106
   72POPC   C1M 3720   3.361   1.862   3.460 -0.1230 -0.1121 -0.3598
   72POPC   C1N 3721   3.253   1.808   3.367 -0.2146 -0.2547 -0.1688
   72POPC   C1O 3722   3.177   1.696   3.439 -0.3240 -0.3576 -0.4435
   72POPC   C1P 3723   3.031   1.667   3.400 -0.5962  0.2928  0.0760
   72POPC   C1Q 3724   3.000   1.629   3.255  0.2467 -0.4189  0.0701
   72POPC   C1R 3725   2.852   1.632   3.216  0.2935  0.3370 -0.0559
   72POPC    CE 3726   4.014   1.831   4.414  0.0035  0.6191 -0.8773
   72POPC    OG 3727   3.977   1.702   4.366 -0.0450  0.2951  0.0164
   72POPC   C2A 3728   4.077   1.624   4.325 -0.2395  0.0194  0.0597
   72POPC    OH 3729   4.194   1.659   4.344 -0.1192  0.0919 -0.7763
   72POPC   C2B 3730   4.028   1.504   4.255  0.3287 -0.0938 -0.1464
   72POPC   C2C 3731   4.061   1.510   4.105 -0.2287 -0.4740 -0.2859
   72POPC   C2D 3732   3.998   1.386   4.042 -0.3775 -0.5076 -0.0742
   72POPC   C2E 3733   4.031   1.370   3.893 -0.1108  0.2950 -0.1050
   72POPC   C2F 3734   3.969   1.247   3.826 -0.0874  0.0854  0.2509
   72POPC   C2G 3735   4.033   1.231   3.687  0.0575 -0.1532  0.3451
   72POPC   C2H 3736   4.172   1.171   3.669  0.1566  0.1888 -0.0317
   72POPC   C2I 3737   4.181   1.096   3.536  0.0898 -0.1531  0.1554
   72POPC   C2J 3738   4.299   0.999   3.543  0.2345  0.0332  0.3163
   72POPC   C2K 3739   4.295   0.940   3.401 -0.4520 -0.3441  0.4857
   72POPC   C2L 3740   4.413   0.848   3.369 -0.1117  0.2636 -0.0210
   72POPC   C2M 3741   4.419   0.804   3.223 -0.1609 -0.2400  0.1262
   72POPC   C2N 3742   4.487   0.667   3.227  0.4419  0.0523  0.0567
   72POPC   C2O 3743   4.504   0.616   3.084 -0.2907 -0.2200  0.0614
   72POPC   C2P 3744   4.570   0.478   3.085  0.3903  0.1036  0.6700
   73POPC   CN1 3745   0.961   4.118   5.082 -0.0273  0.4825  0.3425
   73POPC   CN2 3746   0.733   4.041   5.119 -0.0563  0.4748  0.1721
   73POPC   CN3 3747   0.789   4.174   4.931  0.3220 -0.0313 -0.4874
   73POPC   NTM 3748   0.818   4.152   5.073 -0.0453  0.2450 -0.3671
   73POPC    CA 3749   0.791   4.265   5.163  0.4171 -0.2216  0.3722
   73POPC    CB 3750   0.818   4.410   5.121  0.1684 -0.2693  0.0394
   73POPC    OA 3751   0.955   4.436   5.088  0.1593 -0.0044  0.2029
   73POPC     P 3752   0.999   4.589   5.065  0.3745 -0.0682  0.1965
   73POPC    OB 3753   1.134   4.604   5.005  0.4454 -0.0863  0.3522
   73POPC    OC 3754   0.954   4.657   5.188  0.0389  0.1100 -0.0253
   73POPC    OD 3755   0.905   4.630   4.941  0.0860 -0.4566  0.2835
   73POPC    CC 3756   0.945   4.564   4.820  0.5042 -0.0671  0.2045
   73POPC    CD 3757   0.834   4.554   4.715  0.7129 -0.0896 -0.0155
   73POPC    OE 3758   0.875   4.489   4.595  0.1038  0.0175 -0.2853
   73POPC   C1A 3759   0.883   4.356   4.596  0.5013  0.0399 -0.5803
   73POPC    OF 3760   0.868   4.292   4.699  0.6766  0.5735 -0.2194
   73POPC   C1B 3761   0.900   4.301   4.459  0.4401 -0.6380 -0.3207
   73POPC   C1C 3762   0.766   4.242   4.417 -0.3669  0.8644  0.0617
   73POPC   C1D 3763   0.785   4.193   4.273 -0.3517 -0.2626  0.4389
   73POPC   C1E 3764   0.734   4.292   4.168  0.4450 -0.1508  0.1508
   73POPC   C1F 3765   0.722   4.223   4.031 -0.6749 -0.1476  0.2438
   73POPC   C1G 3766   0.610   4.118   4.026 -0.3977 -0.4367  0.0681
   73POPC   C1H 3767   0.596   4.067   3.883  0.1183 -0.0070 -0.1398
   73POPC   C1I 3768   0.707   3.970   3.843  0.2020  0.2063 -0.4296
   73POPC   C1J 3769   0.702   3.916   3.721  0.0242 -0.0913 -0.2915
   73POPC   C1K 3770   0.600   3.953   3.614  0.1566  0.2587 -0.3000
   73POPC   C1L 3771   0.646   3.867   3.496  0.5617 -0.1928  0.1825
   73POPC   C1M 3772   0.534   3.850   3.393  0.2299 -0.7753  0.6350
   73POPC   C1N 3773   0.405   3.784   3.442 -0.1188 -0.5289  0.0609
   73POPC   C1O 3774   0.306   3.760   3.328  0.0572 -0.4367 -0.1109
   73POPC   C1P 3775   0.174   3.714   3.389  0.0103 -0.2185 -0.0484
   73POPC   C1Q 3776   0.059   3.731   3.288  0.0332  0.0933 -0.0234
   73POPC   C1R 3777   0.066   3.622   3.181 -0.9241 -0.2084  0.2120
   73POPC    CE 3778   0.797   4.700   4.687  0.3252 -0.2794 -0.5010
   73POPC    OG 3779   0.722   4.775   4.591 -0.2407  0.3561  0.4143
   73POPC   C2A 3780   0.777   4.885   4.541  0.2302 -0.1708 -0.2506
   73POPC    OH 3781   0.853   4.951   4.612  0.0746 -0.2688  0.0093
   73POPC   C2B 3782   0.716   4.945   4.420 -0.4279 -0.3118  0.0084
   73POPC   C2C 3783   0.578   4.998   4.460 -0.4531 -0.2618 -0.1445
   73POPC   C2D 3784   0.525   5.094   4.353 -0.1694  0.4194  0.3174
   73POPC   C2E 3785   0.498   5.043   4.212  0.1775  0.3946  0.2580
   73POPC   C2F 3786   0.411   5.139   4.131 -0.5786 -0.2636  0.2759
   73POPC   C2G 3787   0.381   5.079   3.993  0.1824  0.4421 -0.2081
   73POPC   C2H 3788   0.271   5.148   3.912 -0.3976 -0.2706 -0.0375
   73POPC   C2I 3789   0.300   5.143   3.762 -0.2179 -0.0276 -0.0118
   73POPC   C2J 3790   0.206   5.226   3.675 -0.0244 -0.0230 -0.2175
   73POPC   C2K 3791   0.236   5.212   3.525  0.1698 -0.6913 -0.1215
   73POPC   C2L 3792   0.110   5.171   3.450  0.0022  0.2633 -0.3827
   73POPC   C2M 3793   0.140   5.181   3.300  0.2054 -0.0430 -0.3628
   73POPC   C2N 3794   0.079   5.060   3.229 -0.2135 -0.2387  0.3204
   73POPC   C2O 3795   0.053   5.096   3.083  0.6432  0.2875  0.2946
   73POPC   C2P 3796   0.060   4.969   2.999  1.3534  0.3970  0.1821
   74POPC   CN1 3797   6.264   4.674   4.784  0.9872 -0.5626 -0.5668
   74POPC   CN2 3798   0.057   4.806   4.626  0.1059  0.2655 -0.1538
   74POPC   CN3 3799   0.067   4.882   4.850  0.0440 -0.1244  0.3928
   74POPC   NTM 3800   6.291   4.815   4.751  0.4874 -0.2993  0.1229
   74POPC    CA 3801   6.166   4.887   4.720  0.2268 -0.3731  0.9732
   74POPC    CB 3802   6.056   4.906   4.825 -0.6536 -0.7497  0.1285
   74POPC    OA 3803   6.104   4.981   4.937 -0.1682 -0.1304 -0.4842
   74POPC     P 3804   6.057   5.134   4.948  0.3476 -0.0044  0.0187
   74POPC    OB 3805   6.023   5.193   5.079 -0.3801  0.2443 -0.2785
   74POPC    OC 3806   5.952   5.148   4.844  0.1297 -0.4290  0.1774
   74POPC    OD 3807   6.185   5.210   4.887 -0.0401  0.5583 -0.0992
   74POPC    CC 3808   6.152   5.330   4.816 -0.1296  0.1502 -0.7514
   74POPC    CD 3809   6.272   5.425   4.815  0.0263 -0.0146  0.6370
   74POPC    OE 3810   6.238   5.552   4.760  0.3039 -0.3042 -0.2325
   74POPC   C1A 3811   0.009   5.657   4.776  0.1316 -0.1489 -0.3812
   74POPC    OF 3812   0.113   5.654   4.840 -0.2614  0.0108  0.2768
   74POPC   C1B 3813   6.269   5.776   4.703  0.1357 -0.0227 -0.1785
   74POPC   C1C 3814   6.310   5.761   4.556 -0.1667  0.0019 -0.2671
   74POPC   C1D 3815   6.250   5.878   4.478 -0.2207 -0.1942 -0.5199
   74POPC   C1E 3816   6.308   5.894   4.338  0.2177 -0.3220 -0.3541
   74POPC   C1F 3817   6.212   5.974   4.250  0.0593  0.1072  0.2095
   74POPC   C1G 3818   6.269   5.991   4.109  0.1042 -0.1299  0.1982
   74POPC   C1H 3819   6.175   6.056   4.007  0.2281  0.2378  0.3177
   74POPC   C1I 3820   6.253   6.113   3.889  0.3249  0.3144  0.4178
   74POPC   C1J 3821   6.216   6.097   3.762 -0.0116  0.7980  0.4549
   74POPC   C1K 3822   6.090   6.022   3.717  0.4836  0.3719 -0.2503
   74POPC   C1L 3823   6.106   5.963   3.577  0.3145 -0.6588  0.1602
   74POPC   C1M 3824   5.977   5.925   3.505  0.0303  0.4524  0.0702
   74POPC   C1N 3825   5.893   5.817   3.573  0.0711  0.4236  0.0746
   74POPC   C1O 3826   5.779   5.757   3.489  0.2345 -0.3508  0.3984
   74POPC   C1P 3827   5.706   5.638   3.550 -0.5529 -0.0247  0.1027
   74POPC   C1Q 3828   5.633   5.555   3.444  0.2546 -0.2751 -0.2602
   74POPC   C1R 3829   5.506   5.638   3.425 -0.0269 -0.4854  0.6752
   74POPC    CE 3830   0.082   5.359   4.746  0.0073  0.0215  0.5704
   74POPC    OG 3831   0.066   5.324   4.608 -0.7130 -0.6875  0.8243
   74POPC   C2A 3832   0.118   5.208   4.568  0.0162  0.0153 -0.3360
   74POPC    OH 3833   0.153   5.117   4.643 -0.1289  0.1477 -0.1048
   74POPC   C2B 3834   0.112   5.202   4.420 -0.4885  0.3168 -0.3355
   74POPC   C2C 3835   0.033   5.085   4.362  0.8477 -0.7714 -0.0374
   74POPC   C2D 3836   0.029   5.092   4.209 -0.2988 -0.4579 -0.0028
   74POPC   C2E 3837   6.251   4.979   4.154 -0.4482 -0.2996 -0.0896
   74POPC   C2F 3838   6.263   4.983   4.001 -0.2935  0.0351 -0.0690
   74POPC   C2G 3839   6.178   4.867   3.949 -0.2185  0.1274 -0.4011
   74POPC   C2H 3840   6.244   4.784   3.839  0.3377 -0.1689  0.1466
   74POPC   C2I 3841   6.237   4.876   3.716  0.4564 -0.3106  0.0335
   74POPC   C2J 3842   6.258   4.821   3.575 -0.7286  0.3237 -0.4061
   74POPC   C2K 3843   0.073   4.734   3.557 -0.4606  0.6644 -0.2010
   74POPC   C2L 3844   0.090   4.706   3.408  0.5518 -0.6733  0.1465
   74POPC   C2M 3845   6.290   4.613   3.353  0.2348 -0.1903 -0.0437
   74POPC   C2N 3846   0.047   4.578   3.220  0.2031  0.2328 -0.1734
   74POPC   C2O 3847   6.267   4.474   3.151  0.0927 -0.1297  0.5116
   74POPC   C2P 3848   6.284   4.333   3.208 -0.9236 -0.4012  0.1607
   75POPC   CN1 3849   0.424   3.601   4.700  0.1841 -0.2001 -0.3048
   75POPC   CN2 3850   0.595   3.746   4.774 -0.1418 -0.0941  0.3489
   75POPC   CN3 3851   0.560   3.541   4.887 -0.2515 -0.0920  0.7730
   75POPC   NTM 3852   0.491   3.653   4.820 -0.0130 -0.4542 -0.0836
   75POPC    CA 3853   0.390   3.718   4.904  0.1045 -0.3194 -0.0455
   75POPC    CB 3854   0.412   3.826   5.010 -0.1919 -0.2952 -0.0060
   75POPC    OA 3855   0.473   3.948   4.967 -0.1774 -0.3748 -0.2176
   75POPC     P 3856   0.361   4.064   4.956  0.0879 -0.1359 -0.4210
   75POPC    OB 3857   0.353   4.127   5.090  0.5996  0.0858 -0.4910
   75POPC    OC 3858   0.253   3.993   4.883 -0.1360  0.5389 -0.7495
   75POPC    OD 3859   0.439   4.169   4.862  0.0988  0.2636  0.0297
   75POPC    CC 3860   0.454   4.125   4.727 -0.2177 -0.0470  0.0946
   75POPC    CD 3861   0.342   4.112   4.624 -0.0966 -0.6891  0.0375
   75POPC    OE 3862   0.379   4.066   4.493  0.5535 -0.0077 -0.0211
   75POPC   C1A 3863   0.390   3.936   4.469  0.1396 -0.0463 -0.0046
   75POPC    OF 3864   0.362   3.853   4.556  0.3342 -0.3753 -0.2539
   75POPC   C1B 3865   0.418   3.904   4.327  0.4058  0.3540 -0.0454
   75POPC   C1C 3866   0.529   3.799   4.313  0.2821  0.1949  0.1528
   75POPC   C1D 3867   0.541   3.760   4.166  0.1416  0.1156  0.1621
   75POPC   C1E 3868   0.663   3.670   4.142 -0.0787 -0.1933  0.1967
   75POPC   C1F 3869   0.704   3.644   3.997 -0.6411 -0.4606  0.0830
   75POPC   C1G 3870   0.843   3.583   4.003 -0.1734  0.5245 -0.4515
   75POPC   C1H 3871   0.882   3.515   3.870  0.1330 -0.3573  0.0771
   75POPC   C1I 3872   1.008   3.431   3.893  0.4958 -0.0652 -0.8291
   75POPC   C1J 3873   1.008   3.302   3.862  0.4259 -0.1188 -0.6057
   75POPC   C1K 3874   0.878   3.228   3.825  0.2795 -0.3351  0.3217
   75POPC   C1L 3875   0.893   3.166   3.687  0.1748 -0.2568  0.2751
   75POPC   C1M 3876   0.848   3.020   3.685 -0.4945 -0.0553  0.4502
   75POPC   C1N 3877   0.832   2.954   3.548 -0.3250 -0.4461  0.6164
   75POPC   C1O 3878   0.966   2.919   3.483 -0.4080  0.7531 -0.2322
   75POPC   C1P 3879   0.939   2.859   3.345  0.1993 -0.2269  0.0641
   75POPC   C1Q 3880   1.057   2.796   3.271  0.1015 -0.2221 -0.0966
   75POPC   C1R 3881   1.012   2.747   3.133 -0.6491  0.3518 -0.0581
   75POPC    CE 3882   0.275   4.249   4.606  0.3079 -0.5466 -0.4173
   75POPC    OG 3883   0.364   4.360   4.606 -0.2273 -0.1133  0.0974
   75POPC   C2A 3884   0.303   4.478   4.606 -0.0902 -0.0401  0.2570
   75POPC    OH 3885   0.188   4.499   4.646 -0.1727 -0.0932  0.0491
   75POPC   C2B 3886   0.402   4.588   4.596  0.3729 -0.4532  0.2884
   75POPC   C2C 3887   0.420   4.628   4.450  0.1434  0.1325  0.4165
   75POPC   C2D 3888   0.295   4.678   4.378  0.4332  0.5984  0.2340
   75POPC   C2E 3889   0.339   4.723   4.238  0.1811  0.4313  0.1008
   75POPC   C2F 3890   0.386   4.603   4.156 -0.1608  0.2339  0.1883
   75POPC   C2G 3891   0.425   4.641   4.013  0.4817 -0.5164  0.1557
   75POPC   C2H 3892   0.456   4.507   3.947  0.3611 -0.5118  0.0886
   75POPC   C2I 3893   0.489   4.542   3.802  0.4250 -0.3001  0.1543
   75POPC   C2J 3894   0.474   4.425   3.705  0.1680 -0.1702  0.0373
   75POPC   C2K 3895   0.477   4.491   3.566 -0.0113 -0.1617  0.0381
   75POPC   C2L 3896   0.479   4.386   3.455 -0.0625  0.2252 -0.3297
   75POPC   C2M 3897   0.495   4.420   3.307 -0.2760 -0.0803 -0.4219
   75POPC   C2N 3898   0.483   4.289   3.227 -0.3606 -0.1378 -0.3149
   75POPC   C2O 3899   0.345   4.223   3.229 -0.1954 -0.4765 -0.0525
   75POPC   C2P 3900   0.343   4.086   3.159 -0.1806 -0.8146  0.5996
   76POPC   CN1 3901   1.341   5.717   4.533  0.2000  0.0249 -0.2890
   76POPC   CN2 3902   1.500   5.550   4.580 -0.1028  0.0761  0.6442
   76POPC   CN3 3903   1.262   5.501   4.596  0.2738 -0.0674 -0.2179
   76POPC   NTM 3904   1.368   5.601   4.619 -0.1528  0.2964  0.1951
   76POPC    CA 3905   1.372   5.635   4.762 -0.1667  0.6490  0.1127
   76POPC    CB 3906   1.365   5.523   4.866  0.0998  0.3479 -0.1908
   76POPC    OA 3907   1.476   5.433   4.856 -0.1588  0.0053 -0.0295
   76POPC     P 3908   1.435   5.279   4.873  0.1656 -0.0769  0.0151
   76POPC    OB 3909   1.309   5.276   4.951 -0.0680 -0.0109 -0.3592
   76POPC    OC 3910   1.554   5.202   4.917  0.2393  0.0242 -0.0052
   76POPC    OD 3911   1.396   5.236   4.723 -0.3357 -0.1306  0.1604
   76POPC    CC 3912   1.436   5.105   4.684 -0.2240 -0.0359 -0.0453
   76POPC    CD 3913   1.376   5.056   4.552 -0.1782 -0.1074 -0.0397
   76POPC    OE 3914   1.356   4.915   4.537 -0.3456 -0.0568 -0.3085
   76POPC   C1A 3915   1.265   4.849   4.607 -0.2597  0.1442 -0.0039
   76POPC    OF 3916   1.253   4.874   4.727 -0.3309  0.2248 -0.0281
   76POPC   C1B 3917   1.226   4.719   4.547 -0.5521  0.1783  0.1087
   76POPC   C1C 3918   1.127   4.743   4.432 -0.3150  0.0302 -0.1273
   76POPC   C1D 3919   1.089   4.622   4.346  0.3247  0.2554 -0.7360
   76POPC   C1E 3920   0.970   4.637   4.251 -0.3732  0.2308  0.1256
   76POPC   C1F 3921   0.968   4.769   4.175 -0.2235  0.3669  0.3558
   76POPC   C1G 3922   0.876   4.757   4.053  0.2377 -0.1816  0.0562
   76POPC   C1H 3923   0.870   4.885   3.969 -0.1809 -0.2998 -0.0974
   76POPC   C1I 3924   0.771   4.854   3.856  0.0580 -0.1196 -0.3597
   76POPC   C1J 3925   0.726   4.939   3.765  0.3661  0.2164 -0.2003
   76POPC   C1K 3926   0.758   5.088   3.749 -0.1350  0.3640  0.1485
   76POPC   C1L 3927   0.650   5.183   3.697 -0.1887  0.1459 -0.1424
   76POPC   C1M 3928   0.707   5.324   3.709  0.1255  0.0303 -0.2696
   76POPC   C1N 3929   0.700   5.374   3.853  0.1662 -0.1774 -0.1946
   76POPC   C1O 3930   0.793   5.493   3.879 -0.4553  0.1062  0.7956
   76POPC   C1P 3931   0.743   5.615   3.799  0.4388 -0.0782 -0.0649
   76POPC   C1Q 3932   0.813   5.741   3.851  0.4418 -0.1509  0.1081
   76POPC   C1R 3933   0.749   5.867   3.793  0.4267 -0.0285  0.3875
   76POPC    CE 3934   1.452   5.117   4.434  0.0300 -0.1426  0.0752
   76POPC    OG 3935   1.415   5.255   4.421 -0.2381 -0.2023  0.1940
   76POPC   C2A 3936   1.444   5.318   4.307 -0.6022 -0.3668  0.0076
   76POPC    OH 3937   1.389   5.428   4.295  0.4469  0.0962 -0.7055
   76POPC   C2B 3938   1.518   5.261   4.193  0.0422 -0.2583  0.3677
   76POPC   C2C 3939   1.614   5.366   4.137  0.0323 -0.4756 -0.0623
   76POPC   C2D 3940   1.705   5.322   4.022  0.0506 -0.1628 -0.1691
   76POPC   C2E 3941   1.625   5.270   3.903 -0.0975 -0.0612 -0.1144
   76POPC   C2F 3942   1.729   5.231   3.797 -0.1027  0.2711 -0.2409
   76POPC   C2G 3943   1.662   5.177   3.671 -0.2698 -0.3315  0.1046
   76POPC   C2H 3944   1.770   5.124   3.576 -0.2054  0.0612 -0.0421
   76POPC   C2I 3945   1.827   5.235   3.488 -0.3810  0.1665 -0.0242
   76POPC   C2J 3946   1.937   5.174   3.400 -0.0060  0.4273  0.2628
   76POPC   C2K 3947   1.964   5.257   3.274  0.1072  0.5395  0.3608
   76POPC   C2L 3948   2.081   5.190   3.203 -0.3365  0.1262  0.0130
   76POPC   C2M 3949   2.217   5.235   3.258 -0.3170  0.2068 -0.1003
   76POPC   C2N 3950   2.322   5.127   3.234  0.0702  0.6600 -0.4668
   76POPC   C2O 3951   2.367   5.115   3.088 -0.1246  0.7933 -0.5371
   76POPC   C2P 3952   2.518   5.102   3.065 -0.1217 -0.1795 -0.0295
   77POPC   CN1 3953   0.997   4.966   4.924 -0.3328  0.4719  0.3343
   77POPC   CN2 3954   0.838   5.128   4.859 -0.2333 -0.3670  0.1172
   77POPC   CN3 3955   1.057   5.135   4.761  0.3181 -0.4048  0.2970
   77POPC   NTM 3956   0.981   5.106   4.883 -0.1178  0.4709  0.2444
   77POPC    CA 3957   1.036   5.205   4.977  0.0531  0.3144  0.3111
   77POPC    CB 3958   1.025   5.357   4.971  0.3639  0.3145 -0.2672
   77POPC    OA 3959   0.894   5.412   4.954  0.0928 -0.3414 -0.3109
   77POPC     P 3960   0.903   5.527   4.843  0.2701 -0.1776 -0.1261
   77POPC    OB 3961   1.044   5.572   4.828  0.3570 -0.3064  0.2948
   77POPC    OC 3962   0.789   5.622   4.849 -0.1017 -0.6321  0.0123
   77POPC    OD 3963   0.880   5.438   4.711 -0.4528 -0.5356  0.2361
   77POPC    CC 3964   0.843   5.526   4.604 -0.0527  0.0390  0.5634
   77POPC    CD 3965   0.767   5.458   4.490  0.2561 -0.3871  0.6073
   77POPC    OE 3966   0.626   5.445   4.507  0.1352  0.2297  0.1487
   77POPC   C1A 3967   0.545   5.549   4.492  0.1545  0.3003  0.5156
   77POPC    OF 3968   0.593   5.660   4.518  0.5669  0.2803 -0.1440
   77POPC   C1B 3969   0.402   5.512   4.492  0.1944  0.1376  0.0777
   77POPC   C1C 3970   0.315   5.628   4.442 -0.0042 -0.0437  0.0007
   77POPC   C1D 3971   0.319   5.640   4.290  0.6472 -0.0020  0.0169
   77POPC   C1E 3972   0.262   5.510   4.233  0.2969 -0.0327  0.4336
   77POPC   C1F 3973   0.208   5.537   4.092 -0.0233  0.0996  0.5804
   77POPC   C1G 3974   0.321   5.566   3.993 -0.2376  0.1804  0.3573
   77POPC   C1H 3975   0.268   5.586   3.851 -0.1411 -0.3168  0.2491
   77POPC   C1I 3976   0.186   5.711   3.820  0.0927 -0.2755 -0.2142
   77POPC   C1J 3977   0.085   5.711   3.733 -0.2542 -0.1256  0.1796
   77POPC   C1K 3978   0.027   5.583   3.673 -0.5639  0.0045  0.2005
   77POPC   C1L 3979   6.294   5.619   3.531 -0.0162 -0.1679 -0.0113
   77POPC   C1M 3980   6.208   5.516   3.456 -0.3182 -0.1725  0.3372
   77POPC   C1N 3981   6.171   5.570   3.318  0.7038 -0.3050  0.0048
   77POPC   C1O 3982   6.103   5.448   3.255  0.2736 -0.0712  0.0175
   77POPC   C1P 3983   6.045   5.454   3.113  0.0051  0.0262  0.1300
   77POPC   C1Q 3984   5.953   5.336   3.084  0.2580 -0.0964 -0.1763
   77POPC   C1R 3985   5.885   5.339   2.946 -0.4286 -0.2790  0.1521
   77POPC    CE 3986   0.839   5.329   4.448  0.0977 -0.3713  0.2832
   77POPC    OG 3987   0.951   5.348   4.361 -0.3005 -0.5397 -0.2679
   77POPC   C2A 3988   1.034   5.247   4.340  0.3659 -0.0875  0.1710
   77POPC    OH 3989   1.043   5.150   4.416 -0.0353 -0.4906 -0.2889
   77POPC   C2B 3990   1.110   5.263   4.214 -0.2162  0.3466 -0.1274
   77POPC   C2C 3991   1.096   5.128   4.142  0.2691  0.3858 -0.2957
   77POPC   C2D 3992   1.171   5.131   4.009  0.9230  0.4545  0.0705
   77POPC   C2E 3993   1.112   5.233   3.912  0.3519  0.3048  0.2596
   77POPC   C2F 3994   1.188   5.238   3.779  0.0419 -0.2266  0.0584
   77POPC   C2G 3995   1.115   5.316   3.669  0.3583  0.0601  0.0489
   77POPC   C2H 3996   1.170   5.309   3.527  0.3595  0.5084  0.0251
   77POPC   C2I 3997   1.074   5.374   3.428 -0.5655 -0.2989  0.3744
   77POPC   C2J 3998   0.971   5.275   3.373 -0.1514 -0.6010  0.1397
   77POPC   C2K 3999   0.881   5.376   3.301  0.3088 -0.3042 -0.0262
   77POPC   C2L 4000   0.753   5.320   3.237  0.1496  0.0367 -0.0062
   77POPC   C2M 4001   0.649   5.425   3.199 -0.1035 -0.0828  0.3574
   77POPC   C2N 4002   0.562   5.490   3.307 -0.5300 -0.1452  0.0534
   77POPC   C2O 4003   0.466   5.600   3.261  0.3748  0.4252 -0.4770
   77POPC   C2P 4004   0.392   5.653   3.383  0.3289  0.1124 -0.3696
   78POPC   CN1 4005   3.885   4.528   4.335  0.6816 -0.1530 -0.0992
   78POPC   CN2 4006   3.921   4.326   4.473  0.3044  0.0301 -0.6749
   78POPC   CN3 4007   3.709   4.383   4.391  0.1837  0.8045 -0.0640
   78POPC   NTM 4008   3.835   4.441   4.442  0.3546  0.2844  0.1084
   78POPC    CA 4009   3.810   4.536   4.551  0.1820 -0.1070  0.4143
   78POPC    CB 4010   3.782   4.482   4.691  0.3100 -0.0291  0.4721
   78POPC    OA 4011   3.685   4.378   4.712 -0.0171  0.2085  0.1549
   78POPC     P 4012   3.687   4.350   4.871 -0.0823 -0.2157  0.0808
   78POPC    OB 4013   3.829   4.311   4.892  0.0146  0.0680 -0.0496
   78POPC    OC 4014   3.576   4.254   4.889  0.0074 -0.4892 -0.7667
   78POPC    OD 4015   3.657   4.493   4.936  0.0474  0.0275 -0.3864
   78POPC    CC 4016   3.520   4.519   4.968 -0.0181 -1.0781  0.2708
   78POPC    CD 4017   3.467   4.653   4.915  0.4727 -0.8981  0.2334
   78POPC    OE 4018   3.346   4.684   4.986  0.1213  0.1084 -0.7806
   78POPC   C1A 4019   3.299   4.808   4.985 -0.6537 -0.1772 -0.4912
   78POPC    OF 4020   3.364   4.896   4.929 -0.1709 -0.0414  0.2740
   78POPC   C1B 4021   3.158   4.809   5.029 -0.4325 -0.0809  0.2398
   78POPC   C1C 4022   3.059   4.832   4.914 -0.8759 -0.7207  0.4913
   78POPC   C1D 4023   3.064   4.713   4.817 -0.4684  0.0405 -0.4400
   78POPC   C1E 4024   3.005   4.748   4.680 -0.7442  0.0922 -0.3099
   78POPC   C1F 4025   3.032   4.650   4.566  0.0329  0.0588 -0.1044
   78POPC   C1G 4026   3.041   4.712   4.426 -0.2685 -0.4799 -0.3660
   78POPC   C1H 4027   3.188   4.720   4.383 -0.1972  0.2969 -0.0054
   78POPC   C1I 4028   3.266   4.829   4.455  0.1326  0.2523 -0.2923
   78POPC   C1J 4029   3.372   4.891   4.402  0.4893  0.1789  0.3256
   78POPC   C1K 4030   3.425   4.838   4.269 -0.4158  0.6196 -0.2230
   78POPC   C1L 4031   3.578   4.840   4.260 -0.3884  0.2139  0.1078
   78POPC   C1M 4032   3.628   4.772   4.132 -0.4000  0.2185  0.1014
   78POPC   C1N 4033   3.636   4.848   3.999  0.4248 -0.6834 -0.3786
   78POPC   C1O 4034   3.768   4.923   3.982 -0.0550  0.2919  0.1390
   78POPC   C1P 4035   3.761   5.012   3.858 -0.3796  0.5026  0.3057
   78POPC   C1Q 4036   3.882   5.104   3.841  0.1406 -0.1279  0.5748
   78POPC   C1R 4037   3.983   5.020   3.762  0.0099 -0.0449  0.3179
   78POPC    CE 4038   3.451   4.629   4.765  0.0626 -0.5441  0.2201
   78POPC    OG 4039   3.377   4.512   4.729 -0.1708 -0.3674  0.1224
   78POPC   C2A 4040   3.396   4.454   4.611  0.0536  0.1398 -0.0921
   78POPC    OH 4041   3.453   4.514   4.520  0.2288 -0.0131 -0.0844
   78POPC   C2B 4042   3.315   4.333   4.588  0.0854  0.1113 -0.0533
   78POPC   C2C 4043   3.387   4.220   4.513  0.0560 -0.0315  0.1323
   78POPC   C2D 4044   3.280   4.130   4.453  0.0593 -0.0516  0.1575
   78POPC   C2E 4045   3.340   4.039   4.346 -0.2937 -0.2081  0.0906
   78POPC   C2F 4046   3.249   3.935   4.280 -0.1186 -0.3732  0.1092
   78POPC   C2G 4047   3.316   3.871   4.158 -0.1303  0.1273 -0.1618
   78POPC   C2H 4048   3.438   3.787   4.198 -0.1659  0.2407  0.1892
   78POPC   C2I 4049   3.511   3.724   4.079 -0.5647 -0.0519  0.0969
   78POPC   C2J 4050   3.530   3.821   3.963  0.3426 -0.4474 -0.0934
   78POPC   C2K 4051   3.603   3.751   3.848  0.6390  0.2148 -0.3116
   78POPC   C2L 4052   3.625   3.839   3.725  0.1582 -0.1790 -0.6863
   78POPC   C2M 4053   3.680   3.744   3.619  0.7824 -0.3704 -0.1961
   78POPC   C2N 4054   3.758   3.823   3.513  0.4357  0.4982  0.1874
   78POPC   C2O 4055   3.665   3.902   3.421 -0.0241  0.1340  0.3321
   78POPC   C2P 4056   3.737   4.001   3.329  0.2601 -0.4601 -0.0931
   79POPC   CN1 4057   5.122   0.165   4.568 -0.1873 -0.1732 -0.0708
   79POPC   CN2 4058   5.061   6.329   4.425  0.6756  0.1667  0.4210
   79POPC   CN3 4059   4.892   0.126   4.510 -0.3527  0.0024  0.3040
   79POPC   NTM 4060   5.019   0.062   4.546 -0.3591 -0.0630  0.2102
   79POPC    CA 4061   5.004   6.321   4.667  0.4114 -0.1543  0.2513
   79POPC    CB 4062   4.972   6.172   4.676  0.2348 -0.1160  0.2545
   79POPC    OA 4063   5.038   6.076   4.593 -0.3762  0.1663 -0.5735
   79POPC     P 4064   4.946   5.950   4.554 -0.1096 -0.1962 -0.0422
   79POPC    OB 4065   4.848   6.033   4.481 -0.2686 -0.4531 -0.1202
   79POPC    OC 4066   4.918   5.866   4.673  0.2853 -0.3288 -0.0379
   79POPC    OD 4067   5.046   5.879   4.449 -0.0342 -0.0856 -0.0459
   79POPC    CC 4068   5.059   5.950   4.326  0.2673  0.3042  0.2100
   79POPC    CD 4069   5.162   5.899   4.225 -0.4771 -0.1115 -0.3479
   79POPC    OE 4070   5.182   5.969   4.102 -0.2685  0.2324 -0.1191
   79POPC   C1A 4071   5.217   6.097   4.101  0.0870  0.1341 -0.3803
   79POPC    OF 4072   5.219   6.166   4.203  0.3418  0.0626 -0.3377
   79POPC   C1B 4073   5.233   6.153   3.965 -0.6929 -0.0851 -0.5700
   79POPC   C1C 4074   5.366   6.105   3.905 -0.5300 -0.2289 -0.0931
   79POPC   C1D 4075   5.417   6.174   3.779  0.2334  0.3503  0.5161
   79POPC   C1E 4076   5.550   6.102   3.755  0.1205  0.1906  0.3602
   79POPC   C1F 4077   5.612   6.127   3.617 -0.4326  0.5522  0.1769
   79POPC   C1G 4078   5.686   6.259   3.597 -0.3651  0.3996 -0.6225
   79POPC   C1H 4079   5.756   6.257   3.460 -0.1895  0.1528 -0.5293
   79POPC   C1I 4080   5.812   0.056   3.433  0.4497 -0.0851 -0.4328
   79POPC   C1J 4081   5.877   0.056   3.317  0.4341  0.0501 -0.4419
   79POPC   C1K 4082   5.882   6.279   3.219  0.3120  0.2169 -0.6473
   79POPC   C1L 4083   5.854   6.304   3.071 -0.6796  0.3222 -0.4454
   79POPC   C1M 4084   5.857   6.180   2.981  0.9320  0.0308  0.0001
   79POPC   C1N 4085   5.857   6.207   2.831 -0.1400 -0.0969 -0.0302
   79POPC   C1O 4086   5.809   6.089   2.746 -0.0673  0.1449 -0.4112
   79POPC   C1P 4087   5.788   6.143   2.604 -0.3584  0.1088 -0.3825
   79POPC   C1Q 4088   5.775   6.042   2.490 -0.0202 -0.0237 -0.3027
   79POPC   C1R 4089   5.916   6.006   2.441  0.0793  0.2699 -0.2350
   79POPC    CE 4090   5.118   5.756   4.191  0.3276 -0.3825 -0.2634
   79POPC    OG 4091   4.991   5.741   4.126  0.3015  0.0426 -0.3120
   79POPC   C2A 4092   4.909   5.649   4.176 -0.0983  0.2195 -0.6361
   79POPC    OH 4093   4.931   5.589   4.281 -0.3092  0.6571 -0.3374
   79POPC   C2B 4094   4.776   5.636   4.113 -0.2793  0.3074 -0.2715
   79POPC   C2C 4095   4.681   5.749   4.155 -0.2971  0.0369  0.4319
   79POPC   C2D 4096   4.542   5.740   4.092 -0.0388 -0.4640 -0.0683
   79POPC   C2E 4097   4.559   5.763   3.941  0.6568  0.0200  0.0799
   79POPC   C2F 4098   4.507   5.640   3.867  0.0772  0.1827  0.2034
   79POPC   C2G 4099   4.498   5.677   3.719 -0.0595  0.2952  0.2407
   79POPC   C2H 4100   4.413   5.576   3.643  0.0957  0.3608 -0.0217
   79POPC   C2I 4101   4.367   5.622   3.505 -0.2763 -0.1338 -0.0660
   79POPC   C2J 4102   4.268   5.522   3.444 -0.2931 -0.4358  0.4492
   79POPC   C2K 4103   4.247   5.576   3.302  0.0818 -0.2478  0.4632
   79POPC   C2L 4104   4.150   5.485   3.227 -0.2518  0.2484  0.2890
   79POPC   C2M 4105   4.164   5.490   3.075  0.1452 -0.1501  0.3107
   79POPC   C2N 4106   4.105   5.368   3.003  0.9791 -0.3869  0.0135
   79POPC   C2O 4107   4.059   5.388   2.858  0.3780 -0.7418  0.1514
   79POPC   C2P 4108   4.003   5.261   2.794 -0.5101 -0.1760 -0.2196
   80POPC   CN1 4109   1.992   6.207   4.777  0.3145 -0.0013 -0.3267
   80POPC   CN2 4110   2.043   0.013   4.958  0.3853  0.0892 -0.1543
   80POPC   CN3 4111   2.217   6.274   4.806 -0.0505 -0.5416  0.5010
   80POPC   NTM 4112   2.093   6.240   4.878 -0.1633 -0.4998  0.3261
   80POPC    CA 4113   2.130   6.120   4.954  0.1898 -0.2910  0.4896
   80POPC    CB 4114   2.036   6.059   5.059 -0.1962  0.2035  0.4374
   80POPC    OA 4115   1.897   6.067   5.028 -0.0157 -0.1309 -0.5063
   80POPC     P 4116   1.817   6.070   5.168  0.2817  0.2231 -0.3440
   80POPC    OB 4117   1.820   6.208   5.222  0.2101 -0.0538  0.3780
   80POPC    OC 4118   1.848   5.949   5.246 -0.0820  0.4220  0.1172
   80POPC    OD 4119   1.679   6.032   5.093  0.2668 -0.0163 -0.1943
   80POPC    CC 4120   1.610   6.149   5.048 -0.6949 -0.5811 -0.2091
   80POPC    CD 4121   1.635   6.182   4.901 -0.1743 -0.5922 -0.1239
   80POPC    OE 4122   1.557   6.291   4.852  0.1001 -0.6886 -0.7837
   80POPC   C1A 4123   1.622   0.039   4.776 -0.1404 -0.5118 -0.7863
   80POPC    OF 4124   1.745   0.043   4.769 -0.1378  0.1644 -0.4166
   80POPC   C1B 4125   1.531   0.136   4.711 -0.3046 -0.1997 -0.0904
   80POPC   C1C 4126   1.603   0.190   4.588  0.6919  0.2831  0.6909
   80POPC   C1D 4127   1.517   0.269   4.488  0.3735 -0.6108  0.2519
   80POPC   C1E 4128   1.565   0.414   4.476  0.0769 -0.5413 -0.1123
   80POPC   C1F 4129   1.509   0.486   4.354  0.2477 -0.3475 -0.0762
   80POPC   C1G 4130   1.576   0.624   4.348 -0.5485  0.0540  0.1777
   80POPC   C1H 4131   1.519   0.696   4.226  0.3737  0.0065 -0.2864
   80POPC   C1I 4132   1.602   0.821   4.198  0.4610  0.0948  0.3594
   80POPC   C1J 4133   1.540   0.918   4.130 -0.1813 -0.2337  0.4656
   80POPC   C1K 4134   1.401   0.897   4.071  0.2529 -0.0435 -0.6592
   80POPC   C1L 4135   1.335   1.025   4.019  0.5706  0.4617  0.1634
   80POPC   C1M 4136   1.392   1.078   3.888  0.2134  0.3211 -0.0511
   80POPC   C1N 4137   1.359   0.986   3.769  0.6929 -0.0852  0.1234
   80POPC   C1O 4138   1.441   1.020   3.645  0.5206  0.0060  0.0351
   80POPC   C1P 4139   1.401   0.931   3.527 -0.2425  0.5953 -0.1594
   80POPC   C1Q 4140   1.504   0.938   3.414  0.2805  0.0308  0.2834
   80POPC   C1R 4141   1.509   1.080   3.359  0.3987 -0.0313  0.1328
   80POPC    CE 4142   1.618   6.050   4.827 -0.3136 -0.5845 -0.1049
   80POPC    OG 4143   1.686   6.048   4.701 -0.2669 -0.4244 -0.0823
   80POPC   C2A 4144   1.701   5.933   4.636  0.5377 -0.3957  0.0420
   80POPC    OH 4145   1.633   5.837   4.673 -0.4926  0.2744 -0.0839
   80POPC   C2B 4146   1.773   5.956   4.509  0.3938 -0.3661 -0.0348
   80POPC   C2C 4147   1.727   5.861   4.399  0.6813 -0.2089 -0.2935
   80POPC   C2D 4148   1.811   5.868   4.271 -0.1152  0.5128 -0.7869
   80POPC   C2E 4149   1.743   5.790   4.158  0.2196 -0.4645 -0.3253
   80POPC   C2F 4150   1.800   5.828   4.022 -0.2852  0.4988 -0.2758
   80POPC   C2G 4151   1.697   5.787   3.917 -0.2209 -0.6845  0.1181
   80POPC   C2H 4152   1.745   5.832   3.779 -0.2448 -0.2454  0.2516
   80POPC   C2I 4153   1.650   5.792   3.667  0.4046 -0.3859 -0.2577
   80POPC   C2J 4154   1.710   5.825   3.530 -0.0945  0.6396 -0.2398
   80POPC   C2K 4155   1.613   5.751   3.439 -0.3229  0.3897  0.2033
   80POPC   C2L 4156   1.616   5.598   3.441 -0.5620  0.3835  0.2158
   80POPC   C2M 4157   1.515   5.535   3.345 -0.5474 -0.3478  0.6736
   80POPC   C2N 4158   1.505   5.383   3.361 -0.4713 -0.3984  0.2452
   80POPC   C2O 4159   1.426   5.323   3.244 -0.2436 -0.2615  0.0199
   80POPC   C2P 4160   1.480   5.181   3.221 -0.3756 -0.3213  0.0760
   81POPC   CN1 4161   5.535   1.690   5.177 -0.1434  0.0319  0.2784
   81POPC   CN2 4162   5.315   1.700   5.215  0.2075  0.2438 -0.0097
   81POPC   CN3 4163   5.385   1.697   4.988  0.0331  0.3952  0.1364
   81POPC   NTM 4164   5.414   1.753   5.121  0.1728  0.4628  0.0763
   81POPC    CA 4165   5.427   1.898   5.139  0.5417  0.3972  0.3541
   81POPC    CB 4166   5.322   1.990   5.075 -0.0596 -0.3659  0.2278
   81POPC    OA 4167   5.189   1.948   5.108 -0.1770 -0.2756 -0.1269
   81POPC     P 4168   5.062   2.037   5.067 -0.0470 -0.0447 -0.0294
   81POPC    OB 4169   5.114   2.175   5.053 -0.1175 -0.0167 -0.0119
   81POPC    OC 4170   4.942   2.006   5.148 -0.0611  0.2058  0.0485
   81POPC    OD 4171   5.045   1.999   4.911  0.5277 -0.2210 -0.0526
   81POPC    CC 4172   4.971   1.878   4.893  0.3079 -0.1113  0.1025
   81POPC    CD 4173   5.046   1.751   4.852  0.0344 -0.1874 -0.1608
   81POPC    OE 4174   5.075   1.740   4.712 -0.4384  0.8299 -0.3504
   81POPC   C1A 4175   5.194   1.777   4.666 -0.2098  0.3409 -0.1582
   81POPC    OF 4176   5.274   1.831   4.743  0.0209 -0.1729 -0.0299
   81POPC   C1B 4177   5.215   1.755   4.521 -0.0018 -0.0466 -0.0721
   81POPC   C1C 4178   5.271   1.883   4.457  0.5500 -0.1919  0.1147
   81POPC   C1D 4179   5.322   1.869   4.314  0.6147 -0.0773  0.1270
   81POPC   C1E 4180   5.200   1.857   4.222  0.3548  0.1612  0.4387
   81POPC   C1F 4181   5.224   1.823   4.075 -0.2592  0.3634  0.2890
   81POPC   C1G 4182   5.302   1.926   3.994  0.3317 -0.1624  0.1829
   81POPC   C1H 4183   5.332   1.854   3.862  0.0339  0.0677 -0.0122
   81POPC   C1I 4184   5.411   1.954   3.778  0.7872 -0.1939  0.3737
   81POPC   C1J 4185   5.376   1.978   3.652 -0.2064  0.0029  0.6735
   81POPC   C1K 4186   5.250   1.920   3.590  0.1142  0.1226 -0.1040
   81POPC   C1L 4187   5.127   2.009   3.612  0.0355 -0.1006  0.3638
   81POPC   C1M 4188   4.996   1.957   3.554  0.1547 -0.0425  0.0413
   81POPC   C1N 4189   4.984   1.944   3.402  0.5641  0.4219 -0.0313
   81POPC   C1O 4190   4.952   2.076   3.332  0.3010  0.3828  0.0136
   81POPC   C1P 4191   5.007   2.104   3.192  0.7406  0.2788  0.1623
   81POPC   C1Q 4192   4.955   2.236   3.135  0.4871  0.0671 -0.1048
   81POPC   C1R 4193   4.803   2.234   3.120  0.5132  0.0221 -0.3604
   81POPC    CE 4194   4.961   1.639   4.912 -0.2600  0.2304  0.2023
   81POPC    OG 4195   4.990   1.502   4.886  0.3482  0.3723  0.1233
   81POPC   C2A 4196   5.096   1.458   4.954  0.5174 -0.3562 -0.5996
   81POPC    OH 4197   5.143   1.518   5.050 -0.2711 -0.3583 -0.1984
   81POPC   C2B 4198   5.131   1.318   4.918 -0.2250 -0.6172 -0.3306
   81POPC   C2C 4199   5.264   1.313   4.843  0.0712 -0.0364  0.1480
   81POPC   C2D 4200   5.241   1.330   4.693  0.2653 -0.1413  0.1057
   81POPC   C2E 4201   5.363   1.296   4.607 -0.1174 -0.8139 -0.1855
   81POPC   C2F 4202   5.437   1.430   4.599 -0.2043 -0.7475  0.0983
   81POPC   C2G 4203   5.540   1.427   4.486  0.2774  0.1636  0.5006
   81POPC   C2H 4204   5.466   1.421   4.352  0.4868 -0.2347  0.3996
   81POPC   C2I 4205   5.545   1.495   4.244 -0.8120  0.0665 -0.3598
   81POPC   C2J 4206   5.510   1.439   4.106  0.1234 -0.6410 -0.3161
   81POPC   C2K 4207   5.562   1.531   3.994 -0.1938 -0.0209  0.0437
   81POPC   C2L 4208   5.556   1.465   3.856  0.4080  0.7905 -0.3706
   81POPC   C2M 4209   5.576   1.562   3.739 -0.3942  1.0614 -0.2896
   81POPC   C2N 4210   5.524   1.518   3.602 -0.3565  0.2757 -0.0530
   81POPC   C2O 4211   5.540   1.638   3.509  0.0701  0.1718 -0.1157
   81POPC   C2P 4212   5.473   1.617   3.373 -0.2016 -0.4571  0.1114
   82POPC   CN1 4213   0.659   0.319   5.065  0.1951 -0.5563 -0.6940
   82POPC   CN2 4214   0.522   0.391   4.882 -0.0351  0.1000 -0.1921
   82POPC   CN3 4215   0.681   0.539   4.983 -0.1310 -0.0427 -0.5134
   82POPC   NTM 4216   0.583   0.432   5.009  0.2184 -0.2866 -0.1870
   82POPC    CA 4217   0.483   0.484   5.103 -0.3086 -0.3549 -0.7053
   82POPC    CB 4218   0.369   0.571   5.048 -0.3256 -0.2883 -0.5653
   82POPC    OA 4219   0.415   0.688   4.979  0.2930 -0.1583  0.0582
   82POPC     P 4220   0.396   0.828   5.055  0.2594 -0.1604  0.0537
   82POPC    OB 4221   0.525   0.832   5.127  0.0328 -0.5629  0.4919
   82POPC    OC 4222   0.260   0.817   5.113 -0.1265 -0.3224 -0.8619
   82POPC    OD 4223   0.393   0.929   4.930  0.1242  0.5264  0.6038
   82POPC    CC 4224   0.512   0.954   4.855 -0.1135 -0.0590  0.0170
   82POPC    CD 4225   0.541   0.850   4.747  0.3461  0.5371 -0.4403
   82POPC    OE 4226   0.668   0.863   4.682  0.5184 -0.5541 -0.3410
   82POPC   C1A 4227   0.745   0.756   4.664  0.5044 -0.6831  0.3365
   82POPC    OF 4228   0.713   0.649   4.717  0.3600 -0.9597 -0.3031
   82POPC   C1B 4229   0.861   0.777   4.575  0.1919  0.5099  0.1893
   82POPC   C1C 4230   0.822   0.738   4.432 -0.0086  0.2302  0.3190
   82POPC   C1D 4231   0.940   0.762   4.338  0.1218 -0.4319  0.3063
   82POPC   C1E 4232   0.913   0.707   4.198 -0.5310  0.0986  0.2181
   82POPC   C1F 4233   1.017   0.751   4.094 -0.4682  0.2520  0.3448
   82POPC   C1G 4234   0.989   0.662   3.973 -0.2999  0.7554 -0.0688
   82POPC   C1H 4235   1.109   0.617   3.890 -0.5264  0.1218 -0.0568
   82POPC   C1I 4236   1.141   0.695   3.763  0.0256  0.4247  0.2650
   82POPC   C1J 4237   1.170   0.628   3.651  0.7672 -0.0717  0.7408
   82POPC   C1K 4238   1.165   0.476   3.664 -0.4402 -0.1024  0.0999
   82POPC   C1L 4239   1.145   0.405   3.530 -0.3193 -0.2567  0.1630
   82POPC   C1M 4240   1.003   0.426   3.477 -0.1942  0.1477 -0.0119
   82POPC   C1N 4241   0.958   0.325   3.371 -0.1521  0.2160 -0.0957
   82POPC   C1O 4242   0.808   0.322   3.339 -0.0469  0.2988 -0.6009
   82POPC   C1P 4243   0.738   0.221   3.429 -0.0395  0.5386 -0.3241
   82POPC   C1Q 4244   0.790   0.077   3.433  0.2637  0.6547 -0.0705
   82POPC   C1R 4245   0.748   0.014   3.565 -0.5493  0.0803 -0.5960
   82POPC    CE 4246   0.413   0.829   4.667 -0.4832  0.5806  0.8410
   82POPC    OG 4247   0.357   0.951   4.616 -0.3931  0.2389 -0.1020
   82POPC   C2A 4248   0.248   0.928   4.543 -0.6370 -0.3313  0.4253
   82POPC    OH 4249   0.195   0.817   4.543 -0.4249 -0.4447 -0.3280
   82POPC   C2B 4250   0.188   1.057   4.501 -0.5542 -0.2969  0.4117
   82POPC   C2C 4251   0.105   1.061   4.373  0.0625 -0.0725  0.0132
   82POPC   C2D 4252   0.175   1.001   4.251  0.2830  0.1993  0.0071
   82POPC   C2E 4253   0.084   0.988   4.129  0.0466 -0.1502  0.2178
   82POPC   C2F 4254   0.164   0.931   4.012 -0.0730  0.4468 -0.1601
   82POPC   C2G 4255   0.122   0.975   3.871 -0.4213  0.0640 -0.1761
   82POPC   C2H 4256   0.112   1.127   3.861  0.0474  0.0881 -0.2772
   82POPC   C2I 4257   0.058   1.181   3.728 -0.7086  0.3169  0.1165
   82POPC   C2J 4258   0.136   1.307   3.690  0.7332 -0.5469  0.1142
   82POPC   C2K 4259   0.116   1.351   3.544  0.4544  0.1865  0.3689
   82POPC   C2L 4260   0.144   1.495   3.502  0.4050  0.0382 -0.1764
   82POPC   C2M 4261   0.038   1.596   3.547  0.0759 -0.3048 -0.1813
   82POPC   C2N 4262   0.090   1.738   3.528  0.2547 -0.3436  0.0106
   82POPC   C2O 4263   0.081   1.789   3.383 -0.2321 -0.1780  0.0960
   82POPC   C2P 4264   6.250   1.809   3.328 -0.1125  0.2788 -0.0474
   83POPC   CN1 4265   4.617   1.294   4.845 -0.0344  0.4605 -0.5547
   83POPC   CN2 4266   4.821   1.276   4.725 -0.4564 -0.4011 -0.0719
   83POPC   CN3 4267   4.629   1.174   4.643 -0.2996  0.1117  0.1435
   83POPC   NTM 4268   4.702   1.201   4.767 -0.2878 -0.4777  0.2686
   83POPC    CA 4269   4.748   1.086   4.846  0.0201 -0.2829  0.3721
   83POPC    CB 4270   4.835   0.969   4.801  0.2170 -0.1210  0.3316
   83POPC    OA 4271   4.965   0.997   4.747 -0.0020 -0.6124 -0.4678
   83POPC     P 4272   5.089   0.921   4.819  0.0994 -0.3768 -0.3934
   83POPC    OB 4273   5.067   0.944   4.963  0.2370  0.0592 -0.4398
   83POPC    OC 4274   5.226   0.957   4.777  0.0525 -0.0225 -0.2441
   83POPC    OD 4275   5.058   0.769   4.776 -0.3620 -0.4210  0.0825
   83POPC    CC 4276   5.125   0.728   4.656  0.3623 -0.1984  0.4086
   83POPC    CD 4277   5.036   0.641   4.567  0.3042  0.1023  0.1689
   83POPC    OE 4278   5.095   0.567   4.460  0.6937  0.2254  0.2945
   83POPC   C1A 4279   5.032   0.462   4.409 -0.1706  0.9903 -0.2676
   83POPC    OF 4280   4.940   0.411   4.473  0.1182  0.4698 -0.2592
   83POPC   C1B 4281   5.089   0.410   4.282  0.2756  0.5735  0.0982
   83POPC   C1C 4282   4.980   0.384   4.179  0.4952 -0.0333  0.0150
   83POPC   C1D 4283   5.035   0.354   4.039  0.1802  0.2762 -0.1779
   83POPC   C1E 4284   5.086   0.210   4.033 -0.2836  0.1313 -0.6906
   83POPC   C1F 4285   5.123   0.170   3.890  0.5489 -0.1059 -0.4156
   83POPC   C1G 4286   4.991   0.134   3.822  0.3166  0.2407 -0.1502
   83POPC   C1H 4287   5.033   0.069   3.690  0.3553 -0.1260  0.0411
   83POPC   C1I 4288   4.910   0.009   3.621  0.3194  0.2436 -0.2208
   83POPC   C1J 4289   4.916   6.274   3.511 -0.6162 -0.0750 -0.0616
   83POPC   C1K 4290   5.057   6.234   3.470 -0.6653 -0.6897  0.3603
   83POPC   C1L 4291   5.054   6.143   3.347  0.4392  0.0305 -0.2202
   83POPC   C1M 4292   5.097   5.997   3.363  0.1955  0.0241  0.3788
   83POPC   C1N 4293   5.085   5.921   3.231  0.3170  0.3157  0.1999
   83POPC   C1O 4294   5.084   5.769   3.249  0.2674  0.2377 -0.4542
   83POPC   C1P 4295   5.009   5.715   3.127 -0.0702  0.1154 -0.1950
   83POPC   C1Q 4296   4.999   5.563   3.125 -0.1859  0.1212 -0.1028
   83POPC   C1R 4297   4.933   5.515   2.995  0.0742 -0.0657 -0.1660
   83POPC    CE 4298   4.941   0.751   4.519  0.4227 -0.0545 -0.4332
   83POPC    OG 4299   4.991   0.869   4.457  0.0974  0.4874  0.3107
   83POPC   C2A 4300   4.904   0.968   4.443 -0.3676  0.0638  0.1619
   83POPC    OH 4301   4.788   0.968   4.483 -0.5015  0.1445 -0.2146
   83POPC   C2B 4302   4.970   1.084   4.378  0.1473  0.0815  0.7120
   83POPC   C2C 4303   4.872   1.182   4.313  0.3317 -0.4906 -0.4460
   83POPC   C2D 4304   4.939   1.304   4.249 -0.4993  0.2482  0.0675
   83POPC   C2E 4305   4.961   1.292   4.098  0.2485  0.4391  0.1564
   83POPC   C2F 4306   5.067   1.393   4.053  0.7589 -0.1768 -0.0338
   83POPC   C2G 4307   5.127   1.385   3.912  0.4699  0.3888 -0.1913
   83POPC   C2H 4308   5.170   1.244   3.871 -0.0856  0.2355 -0.2515
   83POPC   C2I 4309   5.213   1.238   3.724  0.1110 -0.1881 -0.1782
   83POPC   C2J 4310   5.188   1.102   3.660  0.1653 -0.2097 -0.1536
   83POPC   C2K 4311   5.249   1.091   3.520  0.1599  0.0408 -0.1757
   83POPC   C2L 4312   5.205   1.190   3.412  0.1482  0.2667  0.0345
   83POPC   C2M 4313   5.317   1.251   3.328  0.2337  0.2205  0.1147
   83POPC   C2N 4314   5.262   1.334   3.212  0.2092 -0.0767 -0.0871
   83POPC   C2O 4315   5.376   1.374   3.118 -0.1119  0.0590 -0.4203
   83POPC   C2P 4316   5.430   1.271   3.018 -0.3895 -0.0893 -0.4196
   84POPC   CN1 4317   5.862   2.435   4.945  1.0688 -0.2333 -0.0487
   84POPC   CN2 4318   5.817   2.304   4.743  0.1528 -0.2986 -0.1070
   84POPC   CN3 4319   5.656   2.316   4.899  0.1332  0.9065 -0.6536
   84POPC   NTM 4320   5.803   2.312   4.889  0.1536  0.2434 -0.1341
   84POPC    CA 4321   5.863   2.202   4.965  0.6599  0.5753 -0.0489
   84POPC    CB 4322   5.922   2.078   4.896 -0.3405 -0.2200  0.4916
   84POPC    OA 4323   5.834   2.011   4.805  0.2271 -0.0658 -0.1832
   84POPC     P 4324   5.731   1.909   4.875  0.0340  0.1518 -0.1492
   84POPC    OB 4325   5.721   1.935   5.021  0.2314 -0.1012 -0.0894
   84POPC    OC 4326   5.753   1.770   4.829 -0.3244 -0.2525  0.8687
   84POPC    OD 4327   5.608   1.965   4.789 -0.4249 -0.1416  0.3089
   84POPC    CC 4328   5.596   1.914   4.656  0.1526 -0.3381  0.3310
   84POPC    CD 4329   5.642   1.999   4.537 -0.0895 -0.3784  0.2079
   84POPC    OE 4330   5.540   2.075   4.471  0.2913  0.0025  0.0545
   84POPC   C1A 4331   5.556   2.203   4.439  0.1220 -0.1298 -0.5733
   84POPC    OF 4332   5.583   2.285   4.526  0.2721 -0.2647 -0.4936
   84POPC   C1B 4333   5.473   2.245   4.324 -0.1206  0.7711 -0.0773
   84POPC   C1C 4334   5.563   2.243   4.201 -0.5703 -0.5047 -0.3954
   84POPC   C1D 4335   5.493   2.293   4.074 -0.2547  0.5974 -0.1465
   84POPC   C1E 4336   5.596   2.330   3.968  0.3153 -0.2681  0.0867
   84POPC   C1F 4337   5.527   2.354   3.833  0.5735  0.0461  0.0074
   84POPC   C1G 4338   5.627   2.381   3.720  0.3317  0.3600 -0.1319
   84POPC   C1H 4339   5.570   2.363   3.580  0.5875 -0.6549 -0.1181
   84POPC   C1I 4340   5.657   2.408   3.462  0.5076  0.5220  0.2542
   84POPC   C1J 4341   5.599   2.430   3.345  0.0633 -0.3288  0.3021
   84POPC   C1K 4342   5.448   2.447   3.334  0.1669  0.2478 -0.3133
   84POPC   C1L 4343   5.398   2.386   3.203 -0.0111  0.2727 -0.2574
   84POPC   C1M 4344   5.401   2.234   3.216  0.9424  0.3067 -0.0247
   84POPC   C1N 4345   5.414   2.162   3.082  0.7105  0.1190  0.0537
   84POPC   C1O 4346   5.393   2.013   3.111  0.2668  0.3006  0.6888
   84POPC   C1P 4347   5.381   1.942   2.976  0.2089  0.5029  0.5870
   84POPC   C1Q 4348   5.302   1.811   2.987 -0.0374  0.5852 -0.1399
   84POPC   C1R 4349   5.267   1.760   2.848  0.1960  0.3093 -0.0976
   84POPC    CE 4350   5.706   1.893   4.447  0.7040  0.2292  0.0412
   84POPC    OG 4351   5.788   1.931   4.337  1.0915 -0.1253  0.2074
   84POPC   C2A 4352   5.858   1.833   4.280  0.2057 -0.4415 -0.3570
   84POPC    OH 4353   5.877   1.731   4.345 -0.1416 -0.2659  0.0203
   84POPC   C2B 4354   5.938   1.865   4.159 -0.0870  0.5703 -0.2974
   84POPC   C2C 4355   5.886   1.811   4.025 -0.2637 -0.1944  0.0743
   84POPC   C2D 4356   5.755   1.872   3.975 -0.0820  0.1341  0.0023
   84POPC   C2E 4357   5.786   2.012   3.921  0.3509  0.0800  0.1032
   84POPC   C2F 4358   5.872   2.016   3.795  0.1578 -0.0582 -0.0322
   84POPC   C2G 4359   5.782   2.001   3.672 -0.0465 -0.1850  0.1315
   84POPC   C2H 4360   5.853   2.035   3.541 -0.5702 -0.0828 -0.1299
   84POPC   C2I 4361   5.753   2.006   3.429 -0.6607 -1.0210  0.1874
   84POPC   C2J 4362   5.820   2.001   3.292 -0.2374  0.3265  0.3283
   84POPC   C2K 4363   5.725   1.911   3.212  0.4528 -0.5932  0.5213
   84POPC   C2L 4364   5.764   1.916   3.064 -0.9420 -0.1148  0.1518
   84POPC   C2M 4365   5.706   1.787   3.005 -0.0750 -0.3048 -0.3120
   84POPC   C2N 4366   5.762   1.758   2.866  0.0246  0.6060 -0.4681
   84POPC   C2O 4367   5.701   1.638   2.792  0.1805  0.2420 -0.0119
   84POPC   C2P 4368   5.774   1.614   2.660 -0.8590 -0.3708 -0.4859
   85POPC   CN1 4369   2.173   1.575   4.958  0.1264 -0.3644  0.1230
   85POPC   CN2 4370   2.245   1.688   4.769  0.3565  0.0280  0.0855
   85POPC   CN3 4371   2.108   1.486   4.753 -0.0644  0.3443  0.1165
   85POPC   NTM 4372   2.220   1.553   4.821  0.1428  0.0563  0.0591
   85POPC    CA 4373   2.341   1.471   4.839 -0.3033 -0.6542 -0.1158
   85POPC    CB 4374   2.416   1.412   4.719  0.2096 -0.1972 -0.0285
   85POPC    OA 4375   2.453   1.505   4.617 -0.7528 -0.1095 -0.3093
   85POPC     P 4376   2.512   1.437   4.484  0.3215  0.1166  0.0396
   85POPC    OB 4377   2.603   1.324   4.513 -0.3966 -0.5803 -0.3811
   85POPC    OC 4378   2.562   1.541   4.391  0.3542  0.0649 -0.0010
   85POPC    OD 4379   2.379   1.361   4.434  0.2664  0.2651 -0.0384
   85POPC    CC 4380   2.291   1.459   4.378 -0.3421 -0.1503  0.1841
   85POPC    CD 4381   2.198   1.407   4.268 -0.3307  0.0805  0.0640
   85POPC    OE 4382   2.114   1.296   4.301  0.0237 -0.1458  0.2008
   85POPC   C1A 4383   2.009   1.302   4.382 -0.0503 -0.3499  0.1214
   85POPC    OF 4384   2.021   1.383   4.474  0.0552  0.1046 -0.2860
   85POPC   C1B 4385   1.918   1.186   4.369 -0.2695 -0.1133 -0.4879
   85POPC   C1C 4386   1.770   1.209   4.336 -0.2909  0.6556  0.0988
   85POPC   C1D 4387   1.740   1.282   4.205  0.3324  1.0684  0.1833
   85POPC   C1E 4388   1.780   1.200   4.082 -0.5142  0.4159  0.3358
   85POPC   C1F 4389   1.808   1.282   3.956 -0.7202  0.0840  0.0715
   85POPC   C1G 4390   1.834   1.203   3.828 -0.4600  0.5621 -0.1762
   85POPC   C1H 4391   1.889   1.301   3.724 -0.0648  0.4809 -0.0476
   85POPC   C1I 4392   1.860   1.254   3.581  0.4804  0.1433 -0.0508
   85POPC   C1J 4393   1.785   1.329   3.500  0.2761 -0.1025 -0.0889
   85POPC   C1K 4394   1.733   1.468   3.536 -0.3051 -0.2788 -0.2395
   85POPC   C1L 4395   1.724   1.567   3.420 -0.1960 -0.0445 -0.0487
   85POPC   C1M 4396   1.870   1.608   3.402 -0.2414 -0.0334 -0.4167
   85POPC   C1N 4397   1.888   1.710   3.290 -0.0510  0.0089 -0.3485
   85POPC   C1O 4398   1.901   1.858   3.329  0.3296 -0.0447 -0.2745
   85POPC   C1P 4399   2.034   1.871   3.404  0.2358 -0.0133 -0.1139
   85POPC   C1Q 4400   2.066   2.014   3.445 -0.1394  0.0619 -0.0793
   85POPC   C1R 4401   2.204   2.033   3.508 -0.2188  0.3011  0.0250
   85POPC    CE 4402   2.291   1.360   4.155 -0.7950 -0.1389 -0.2325
   85POPC    OG 4403   2.351   1.468   4.083 -0.0937 -0.1069  0.3931
   85POPC   C2A 4404   2.433   1.437   3.983 -0.1479  0.2644  0.2328
   85POPC    OH 4405   2.471   1.323   3.960 -0.5931  0.2303 -0.3556
   85POPC   C2B 4406   2.478   1.542   3.889  0.5314 -0.1817  0.0546
   85POPC   C2C 4407   2.366   1.624   3.825  0.3447 -0.2864  0.2461
   85POPC   C2D 4408   2.275   1.555   3.723  0.4982  0.2197 -0.2414
   85POPC   C2E 4409   2.342   1.497   3.599 -0.0792 -1.5622  0.2486
   85POPC   C2F 4410   2.240   1.462   3.490  0.3271 -0.2027 -0.5924
   85POPC   C2G 4411   2.215   1.315   3.458  0.5882 -0.3991  0.0892
   85POPC   C2H 4412   2.346   1.255   3.406  0.7911 -0.5433  0.7566
   85POPC   C2I 4413   2.345   1.106   3.370  0.1406 -0.2747 -0.3656
   85POPC   C2J 4414   2.475   1.061   3.303  0.2137  0.0106 -0.4159
   85POPC   C2K 4415   2.485   1.120   3.161  0.3124  0.3807 -0.2579
   85POPC   C2L 4416   2.613   1.074   3.092  0.2214  0.2738 -0.3551
   85POPC   C2M 4417   2.747   1.108   3.156  0.1267  0.3342 -0.1884
   85POPC   C2N 4418   2.870   1.037   3.099  0.1238  0.0963  0.0989
   85POPC   C2O 4419   2.890   1.086   2.956 -0.2118  0.1445  0.0689
   85POPC   C2P 4420   2.928   1.233   2.938  0.8903 -0.1558 -0.1022
   86POPC   CN1 4421   5.435   4.155   5.218  0.0897  0.0144 -0.1599
   86POPC   CN2 4422   5.231   4.128   5.120  0.7079  0.0142 -0.5183
   86POPC   CN3 4423   5.267   4.058   5.341 -0.2617  0.3599  0.0324
   86POPC   NTM 4424   5.327   4.057   5.206  0.0728 -0.0109  0.1826
   86POPC    CA 4425   5.373   3.929   5.151  0.1352 -0.0512  0.3287
   86POPC    CB 4426   5.289   3.807   5.112  0.0246  0.1644 -0.1071
   86POPC    OA 4427   5.165   3.832   5.046 -0.2217 -0.5299  0.0805
   86POPC     P 4428   5.180   3.814   4.887 -0.3731  0.2006 -0.0225
   86POPC    OB 4429   5.055   3.832   4.809 -0.4713  0.5170  0.2081
   86POPC    OC 4430   5.258   3.692   4.858  0.0697  0.4207  0.2461
   86POPC    OD 4431   5.266   3.942   4.843  0.4873 -0.2352  0.3819
   86POPC    CC 4432   5.350   3.929   4.728  0.2985 -0.2532  0.2448
   86POPC    CD 4433   5.430   4.056   4.698  0.4908 -0.4476 -0.0721
   86POPC    OE 4434   5.500   4.032   4.576 -0.1374 -0.2492 -0.4717
   86POPC   C1A 4435   5.472   4.125   4.485 -0.1073  0.2648  0.0381
   86POPC    OF 4436   5.393   4.217   4.499 -0.4824  0.0073 -0.3593
   86POPC   C1B 4437   5.555   4.102   4.364 -0.1189  0.1566  0.0505
   86POPC   C1C 4438   5.666   4.207   4.352 -0.3303  0.3477 -0.2500
   86POPC   C1D 4439   5.635   4.320   4.254  0.1805  0.4876 -0.2527
   86POPC   C1E 4440   5.543   4.429   4.311  0.2491  0.1786  0.4607
   86POPC   C1F 4441   5.505   4.549   4.224 -0.0170 -0.0582  0.2501
   86POPC   C1G 4442   5.631   4.628   4.189  0.0052 -0.2687 -0.1634
   86POPC   C1H 4443   5.581   4.759   4.127  0.2454 -0.0586  0.0847
   86POPC   C1I 4444   5.701   4.817   4.052  0.1099  0.6893  0.4336
   86POPC   C1J 4445   5.692   4.840   3.921 -0.4190 -0.7680  0.1869
   86POPC   C1K 4446   5.566   4.802   3.844 -0.4803 -0.8581  0.3302
   86POPC   C1L 4447   5.596   4.777   3.696 -0.4810 -0.6940  0.3018
   86POPC   C1M 4448   5.483   4.684   3.650 -0.3724 -0.7428  0.1332
   86POPC   C1N 4449   5.508   4.674   3.500  0.0199  0.1509  0.1332
   86POPC   C1O 4450   5.477   4.803   3.425 -0.8546  0.0097  0.2405
   86POPC   C1P 4451   5.498   4.779   3.275  0.1183  0.0555  0.3591
   86POPC   C1Q 4452   5.466   4.905   3.194 -0.1146  0.1864  0.6516
   86POPC   C1R 4453   5.530   4.911   3.055 -0.3167  0.0258  0.5512
   86POPC    CE 4454   5.514   4.109   4.815  0.3102  0.5574 -0.3857
   86POPC    OG 4455   5.609   4.009   4.853 -0.3122  0.2450  0.3866
   86POPC   C2A 4456   5.686   4.045   4.955  0.0010 -0.0254  0.2483
   86POPC    OH 4457   5.647   4.134   5.031 -0.2197  0.3987 -0.3487
   86POPC   C2B 4458   5.802   3.955   4.974  0.0607 -0.0473 -0.1993
   86POPC   C2C 4459   5.921   4.024   5.042  0.3194 -0.8033  0.1290
   86POPC   C2D 4460   6.007   4.102   4.942 -0.1622 -0.1293  0.2352
   86POPC   C2E 4461   6.121   4.186   5.002  0.1570  0.0914 -0.6695
   86POPC   C2F 4462   6.226   4.216   4.894 -0.0735  0.3905 -0.8129
   86POPC   C2G 4463   0.012   4.328   4.933  0.3444 -0.3578  0.3594
   86POPC   C2H 4464   0.066   4.302   5.074 -0.0005 -0.1210  0.5385
   86POPC   C2I 4465   0.155   4.415   5.126  0.0048  0.3614 -0.4903
   86POPC   C2J 4466   0.287   4.451   5.058 -0.0835  0.4085 -0.6360
   86POPC   C2K 4467   0.350   4.582   5.105 -0.1675  0.3577 -0.3787
   86POPC   C2L 4468   0.465   4.624   5.013  0.0658  0.3960 -0.0711
   86POPC   C2M 4469   0.526   4.756   5.059  0.6785  0.0230  0.2002
   86POPC   C2N 4470   0.436   4.871   5.015  0.1773 -0.3096  0.3475
   86POPC   C2O 4471   0.494   5.004   5.064 -0.0039 -0.1825  0.2211
   86POPC   C2P 4472   0.428   5.109   4.975  0.2247  0.0180  0.2887
   87POPC   CN1 4473   6.053   3.318   5.036  0.2185 -0.0035  0.0256
   87POPC   CN2 4474   5.866   3.340   4.879 -0.0098  0.1568  0.1264
   87POPC   CN3 4475   5.883   3.484   5.058 -0.2012 -0.1888  0.5197
   87POPC   NTM 4476   5.909   3.344   5.019  0.2179  0.0167  0.0614
   87POPC    CA 4477   5.829   3.254   5.102 -0.3718  0.3845 -0.1026
   87POPC    CB 4478   5.676   3.244   5.092 -0.3594 -0.2081  0.2350
   87POPC    OA 4479   5.613   3.370   5.116  0.0603  0.0722 -0.1173
   87POPC     P 4480   5.456   3.397   5.094  0.0263 -0.1970 -0.2116
   87POPC    OB 4481   5.431   3.531   5.153  0.5207 -0.2886  0.2183
   87POPC    OC 4482   5.396   3.264   5.119 -0.2207  0.0094  0.3310
   87POPC    OD 4483   5.465   3.405   4.934  0.0133  0.1811 -0.1935
   87POPC    CC 4484   5.496   3.537   4.886  0.9280  0.1539  0.3051
   87POPC    CD 4485   5.527   3.545   4.737 -0.7870 -0.0328 -0.0786
   87POPC    OE 4486   5.578   3.669   4.687 -0.1900 -0.4287 -0.4663
   87POPC   C1A 4487   5.708   3.688   4.672 -0.1821 -0.4398 -0.4077
   87POPC    OF 4488   5.785   3.622   4.742  0.0398 -0.0314 -0.2603
   87POPC   C1B 4489   5.748   3.808   4.595  0.2400  0.0828  0.5947
   87POPC   C1C 4490   5.879   3.785   4.520 -0.2849  0.4302 -0.4573
   87POPC   C1D 4491   5.854   3.705   4.392 -0.0501  0.1636 -0.3400
   87POPC   C1E 4492   5.988   3.686   4.322  0.4212  0.2059  0.5345
   87POPC   C1F 4493   5.968   3.587   4.206 -0.0589  0.3955  0.4551
   87POPC   C1G 4494   5.977   3.441   4.251 -0.5608  0.2304  0.0284
   87POPC   C1H 4495   5.957   3.339   4.139 -0.5648 -0.0101  0.2470
   87POPC   C1I 4496   5.968   3.195   4.190 -0.3056 -0.1326 -0.1470
   87POPC   C1J 4497   6.006   3.102   4.103 -0.0167  0.1543 -0.3264
   87POPC   C1K 4498   6.007   3.145   3.956  0.3698  0.5442 -0.2145
   87POPC   C1L 4499   6.140   3.102   3.894  0.4423 -0.2594  0.4805
   87POPC   C1M 4500   6.141   3.126   3.743  0.0538  0.0904  0.5327
   87POPC   C1N 4501   6.278   3.092   3.686 -0.4086  0.4002 -0.7949
   87POPC   C1O 4502   6.290   3.118   3.535 -0.2745  0.2326 -0.8137
   87POPC   C1P 4503   6.300   3.267   3.505 -0.1056  0.3683 -0.1139
   87POPC   C1Q 4504   6.293   3.286   3.353  0.0019  0.2648 -0.1315
   87POPC   C1R 4505   6.162   3.242   3.287 -0.4153  0.6708  0.4208
   87POPC    CE 4506   5.401   3.494   4.666 -0.7380 -0.0969 -0.1194
   87POPC    OG 4507   5.446   3.391   4.577 -0.0107 -0.1740  0.3297
   87POPC   C2A 4508   5.361   3.306   4.520  0.0647 -0.9112  1.2957
   87POPC    OH 4509   5.243   3.313   4.554 -0.2864 -0.5335  0.0361
   87POPC   C2B 4510   5.431   3.219   4.423  0.4019  0.2718  0.4567
   87POPC   C2C 4511   5.383   3.263   4.285  0.1838 -0.2282  0.3686
   87POPC   C2D 4512   5.456   3.187   4.174  0.0019  0.4296 -0.2121
   87POPC   C2E 4513   5.398   3.221   4.037  0.1928 -0.1110 -0.4326
   87POPC   C2F 4514   5.497   3.184   3.927  0.1167 -0.9776 -0.2114
   87POPC   C2G 4515   5.449   3.248   3.796  0.5165  0.6980  0.4404
   87POPC   C2H 4516   5.545   3.205   3.685 -0.2015  0.2653 -0.0175
   87POPC   C2I 4517   5.551   3.300   3.565 -0.0559 -0.6164 -0.7196
   87POPC   C2J 4518   5.424   3.306   3.480 -0.4092 -0.2222 -0.1719
   87POPC   C2K 4519   5.462   3.380   3.351 -0.1282 -0.4698 -0.2324
   87POPC   C2L 4520   5.334   3.458   3.322  0.4611  0.6665  0.1896
   87POPC   C2M 4521   5.361   3.545   3.198  0.2671  0.4412 -0.0111
   87POPC   C2N 4522   5.225   3.599   3.154  0.0077 -0.4506 -0.3193
   87POPC   C2O 4523   5.255   3.707   3.050 -0.6615  0.2641  0.2157
   87POPC   C2P 4524   5.331   3.826   3.110 -0.1085 -0.1605  0.3681
   88POPC   CN1 4525   3.374   4.043   5.121  0.5733 -0.2050  0.3471
   88POPC   CN2 4526   3.528   3.932   4.985  0.0596 -0.0637 -0.1820
   88POPC   CN3 4527   3.316   3.998   4.890 -0.1744  0.0284 -0.1559
   88POPC   NTM 4528   3.384   3.947   5.010  0.1014  0.3437 -0.1767
   88POPC    CA 4529   3.340   3.813   5.051 -0.0164  0.3356 -0.3294
   88POPC    CB 4530   3.323   3.688   4.964 -0.0109  0.2627 -0.2266
   88POPC    OA 4531   3.439   3.650   4.889  0.2496  0.2930  0.1635
   88POPC     P 4532   3.411   3.650   4.731  0.0978  0.0745  0.1902
   88POPC    OB 4533   3.274   3.695   4.697 -0.0249 -0.3483  0.1135
   88POPC    OC 4534   3.482   3.531   4.680 -0.2918  0.0320 -0.2583
   88POPC    OD 4535   3.510   3.775   4.712 -0.1530  0.2365 -0.0704
   88POPC    CC 4536   3.542   3.792   4.574  0.3127 -1.0908 -0.1425
   88POPC    CD 4537   3.690   3.817   4.548  0.2605 -0.7984 -0.1685
   88POPC    OE 4538   3.703   3.877   4.419 -0.0848  0.0678  0.1962
   88POPC   C1A 4539   3.799   3.970   4.416  0.3364 -0.3505  0.4976
   88POPC    OF 4540   3.856   4.017   4.515  0.5995 -0.0524  0.2050
   88POPC   C1B 4541   3.824   4.030   4.284 -0.2331 -0.0474  0.5204
   88POPC   C1C 4542   3.948   3.973   4.214 -0.5805 -0.7718  0.4794
   88POPC   C1D 4543   3.944   3.828   4.165 -0.5082 -0.2598 -1.1078
   88POPC   C1E 4544   4.070   3.802   4.082  0.5441 -0.2947  0.4582
   88POPC   C1F 4545   4.085   3.665   4.017 -0.1301 -0.1028 -0.1208
   88POPC   C1G 4546   3.981   3.640   3.909 -0.0195  0.0004 -0.2509
   88POPC   C1H 4547   4.010   3.507   3.838 -0.2146  0.0830 -0.4897
   88POPC   C1I 4548   3.906   3.466   3.734 -0.5782  0.0429 -0.1133
   88POPC   C1J 4549   3.945   3.390   3.631 -0.3529 -0.4172  0.3055
   88POPC   C1K 4550   4.092   3.351   3.623 -0.1344  0.4312  0.0827
   88POPC   C1L 4551   4.134   3.356   3.476 -0.2566 -0.1175  0.0289
   88POPC   C1M 4552   4.139   3.497   3.418 -0.0784 -0.1999 -0.1554
   88POPC   C1N 4553   4.224   3.490   3.291 -0.1375 -0.1724 -0.1965
   88POPC   C1O 4554   4.235   3.631   3.233  0.0649 -0.1682 -0.1482
   88POPC   C1P 4555   4.116   3.674   3.147 -0.2091 -0.3455  0.1400
   88POPC   C1Q 4556   4.107   3.823   3.114  0.3006 -0.3495 -0.0337
   88POPC   C1R 4557   3.973   3.858   3.049  0.6738  0.0767 -0.5805
   88POPC    CE 4558   3.769   3.686   4.561  0.7026 -0.5280 -0.0829
   88POPC    OG 4559   3.728   3.587   4.466 -0.5702  0.4393 -0.5709
   88POPC   C2A 4560   3.710   3.462   4.507 -0.1391  0.6060  0.1379
   88POPC    OH 4561   3.769   3.414   4.604 -0.2601 -0.3016 -0.2249
   88POPC   C2B 4562   3.628   3.383   4.413  0.1468  0.1628  0.2565
   88POPC   C2C 4563   3.640   3.429   4.267 -0.5398  0.3587  0.2554
   88POPC   C2D 4564   3.538   3.354   4.182 -0.0083 -0.1648  0.0675
   88POPC   C2E 4565   3.552   3.363   4.030  0.1982 -0.3341  0.0755
   88POPC   C2F 4566   3.421   3.318   3.966  0.0604 -0.2370  0.2877
   88POPC   C2G 4567   3.431   3.334   3.814  0.0583  0.4007  0.3555
   88POPC   C2H 4568   3.530   3.243   3.742 -0.0229  0.1923  0.5074
   88POPC   C2I 4569   3.556   3.317   3.611  0.0178 -0.0023  0.4049
   88POPC   C2J 4570   3.626   3.217   3.519  0.1831  0.1918  0.3184
   88POPC   C2K 4571   3.653   3.275   3.379  0.0505  0.3681  0.3652
   88POPC   C2L 4572   3.729   3.170   3.298  0.2288  0.1879  0.7601
   88POPC   C2M 4573   3.769   3.234   3.165 -0.1145  0.0500  0.5876
   88POPC   C2N 4574   3.812   3.135   3.057 -0.1873  0.3349  0.2963
   88POPC   C2O 4575   3.927   3.043   3.098 -0.0543  0.1258 -0.5162
   88POPC   C2P 4576   4.063   3.098   3.055  0.2321  0.3990  0.6867
   89POPC   CN1 4577   4.658   2.300   5.027  0.5528  0.9565 -0.8582
   89POPC   CN2 4578   4.775   2.226   4.831 -0.0292  0.0933 -0.3278
   89POPC   CN3 4579   4.567   2.328   4.813  0.4353  0.3230  0.2807
   89POPC   NTM 4580   4.643   2.234   4.896  0.0344 -0.3851 -0.1388
   89POPC    CA 4581   4.595   2.096   4.911 -0.0617 -0.3349  0.0271
   89POPC    CB 4582   4.457   2.066   4.968 -0.0157 -0.5225  0.0390
   89POPC    OA 4583   4.342   2.134   4.917  0.5942  0.2351 -0.3360
   89POPC     P 4584   4.260   2.055   4.803  0.4529  0.4764 -0.4039
   89POPC    OB 4585   4.150   2.137   4.747 -0.2130 -0.0978  0.0414
   89POPC    OC 4586   4.269   1.908   4.821 -0.1377  0.4900  0.0359
   89POPC    OD 4587   4.378   2.084   4.698  0.9036 -0.1711 -0.0852
   89POPC    CC 4588   4.383   1.994   4.587 -0.2082 -0.1275 -0.1828
   89POPC    CD 4589   4.481   2.032   4.475 -0.0359  0.1275  0.0511
   89POPC    OE 4590   4.443   1.978   4.348 -0.0402  0.0459  0.0875
   89POPC   C1A 4591   4.402   2.064   4.255  0.3365  0.0319 -0.0913
   89POPC    OF 4592   4.387   2.183   4.281 -0.2527 -0.1376  0.3667
   89POPC   C1B 4593   4.386   1.997   4.124  0.3490  0.2857 -0.2227
   89POPC   C1C 4594   4.250   1.931   4.101  0.4845  0.1082 -0.5194
   89POPC   C1D 4595   4.128   2.022   4.080  0.2485 -0.1501 -0.2679
   89POPC   C1E 4596   4.118   2.091   3.944  0.0558  0.1505 -0.1024
   89POPC   C1F 4597   4.055   1.990   3.847  0.1797 -0.2518  0.2327
   89POPC   C1G 4598   4.054   2.045   3.705  0.3251 -0.2271  0.2412
   89POPC   C1H 4599   3.985   1.941   3.616 -0.5778  0.0867  0.5623
   89POPC   C1I 4600   3.961   2.005   3.480 -0.0674  0.1441  0.4948
   89POPC   C1J 4601   3.965   1.938   3.365  0.3191 -0.0227  0.6039
   89POPC   C1K 4602   3.972   1.785   3.362 -0.3970 -0.0490 -0.5500
   89POPC   C1L 4603   4.053   1.734   3.243  0.0540 -0.3202 -0.1305
   89POPC   C1M 4604   3.971   1.732   3.114 -0.1984 -0.4931  0.0307
   89POPC   C1N 4605   4.062   1.710   2.992  0.1806  0.6015  0.1082
   89POPC   C1O 4606   3.991   1.718   2.857 -0.2506 -0.4269  0.2696
   89POPC   C1P 4607   4.094   1.677   2.752 -0.4409  0.4436 -0.2630
   89POPC   C1Q 4608   4.042   1.690   2.609 -0.4205 -0.0411 -0.3170
   89POPC   C1R 4609   4.021   1.828   2.545  0.8099  0.4118  0.2290
   89POPC    CE 4610   4.619   1.996   4.529 -0.0928  0.0390  0.1395
   89POPC    OG 4611   4.724   2.001   4.431  0.0550 -0.2736  0.2807
   89POPC   C2A 4612   4.782   2.120   4.415 -0.0514 -0.2894 -0.2297
   89POPC    OH 4613   4.782   2.204   4.505 -0.2659 -0.2876 -0.2310
   89POPC   C2B 4614   4.858   2.116   4.288  0.5397  0.8831  0.0749
   89POPC   C2C 4615   4.792   2.154   4.155 -0.1367  0.0002  0.1471
   89POPC   C2D 4616   4.870   2.091   4.040 -0.2165  0.0815  0.0485
   89POPC   C2E 4617   4.827   2.139   3.901 -0.4505  0.4383  0.2427
   89POPC   C2F 4618   4.682   2.119   3.857 -0.1197 -0.0568 -0.6540
   89POPC   C2G 4619   4.655   1.973   3.821 -0.1520 -0.2247  0.0248
   89POPC   C2H 4620   4.524   1.937   3.750 -0.2871 -0.3523  0.3394
   89POPC   C2I 4621   4.518   1.787   3.721  0.2320 -0.2743 -0.1719
   89POPC   C2J 4622   4.373   1.741   3.713  0.1524 -0.1013  0.2626
   89POPC   C2K 4623   4.365   1.592   3.680  0.0781 -0.1207  0.3661
   89POPC   C2L 4624   4.409   1.575   3.534 -0.4661 -0.0159  0.1906
   89POPC   C2M 4625   4.411   1.432   3.480  0.1177  0.0221  0.1103
   89POPC   C2N 4626   4.517   1.416   3.371 -0.1709  0.3453 -0.2241
   89POPC   C2O 4627   4.534   1.265   3.348  0.2745  0.3391  0.1253
   89POPC   C2P 4628   4.631   1.245   3.231  0.1624  0.5283 -0.0002
   90POPC   CN1 4629   1.791   5.608   4.907  0.4699  0.1100  0.1077
   90POPC   CN2 4630   1.687   5.484   5.089  0.1586 -0.1596  0.5307
   90POPC   CN3 4631   1.643   5.722   5.059 -0.2438 -0.5027 -0.3491
   90POPC   NTM 4632   1.741   5.613   5.045  0.0342 -0.2957 -0.0305
   90POPC    CA 4633   1.856   5.648   5.129  0.0128  0.0962 -0.1601
   90POPC    CB 4634   1.981   5.560   5.133  0.1440  0.2854 -0.0318
   90POPC    OA 4635   1.972   5.427   5.186  0.4732  0.3643  0.2251
   90POPC     P 4636   2.061   5.328   5.097 -0.0182  0.1155  0.0054
   90POPC    OB 4637   2.035   5.193   5.153  0.0647  0.3562  0.6284
   90POPC    OC 4638   2.190   5.383   5.049  0.1671 -0.4635 -0.1739
   90POPC    OD 4639   1.971   5.314   4.964  0.0662 -0.0632 -0.0335
   90POPC    CC 4640   2.031   5.252   4.851  0.1109  0.2268 -0.1701
   90POPC    CD 4641   1.932   5.172   4.765  0.0167  0.2399 -0.0742
   90POPC    OE 4642   1.984   5.088   4.662  0.3850 -0.1532  0.4298
   90POPC   C1A 4643   1.929   4.967   4.649 -0.3442  0.2159  0.0219
   90POPC    OF 4644   1.888   4.899   4.743  0.0148 -0.0385 -0.0059
   90POPC   C1B 4645   1.962   4.903   4.520 -1.1970 -0.8492  0.3175
   90POPC   C1C 4646   1.881   4.957   4.402 -0.4932 -0.6468 -0.0834
   90POPC   C1D 4647   1.936   4.880   4.283 -0.2468 -0.7589  0.1029
   90POPC   C1E 4648   1.840   4.903   4.166  0.3895  0.5092 -0.1832
   90POPC   C1F 4649   1.861   4.807   4.049 -0.2619  0.1524 -0.0110
   90POPC   C1G 4650   1.761   4.851   3.942 -0.5839 -0.2745  0.1114
   90POPC   C1H 4651   1.764   4.775   3.809  0.0091  0.0461 -0.0624
   90POPC   C1I 4652   1.667   4.657   3.800  0.5425 -0.3829 -0.2170
   90POPC   C1J 4653   1.598   4.658   3.687  0.0799 -0.0498  0.0628
   90POPC   C1K 4654   1.642   4.744   3.569  0.3371  0.5552  0.5957
   90POPC   C1L 4655   1.525   4.832   3.524  0.0821  0.0812  0.3214
   90POPC   C1M 4656   1.419   4.740   3.463  0.3270 -0.1883  0.3026
   90POPC   C1N 4657   1.309   4.824   3.396 -0.1595 -0.5054  0.6981
   90POPC   C1O 4658   1.183   4.739   3.396 -0.4081 -0.1393  0.7813
   90POPC   C1P 4659   1.069   4.834   3.359 -0.0597 -0.2121 -0.5148
   90POPC   C1Q 4660   0.931   4.782   3.399 -0.1510  0.0391 -0.4972
   90POPC   C1R 4661   0.826   4.878   3.344 -0.2112  0.2156 -0.0816
   90POPC    CE 4662   1.826   5.272   4.718 -0.4509 -0.5303 -0.6771
   90POPC    OG 4663   1.867   5.386   4.643 -0.4459 -0.0787  0.0065
   90POPC   C2A 4664   1.859   5.359   4.513  0.2480 -0.4937  0.0479
   90POPC    OH 4665   1.755   5.310   4.468  0.1187  0.0067 -0.2017
   90POPC   C2B 4666   1.951   5.434   4.425 -0.2299 -0.1157 -0.1354
   90POPC   C2C 4667   2.022   5.334   4.333 -0.3838 -0.2973 -0.0581
   90POPC   C2D 4668   2.145   5.394   4.265 -0.6322  0.0698 -0.1892
   90POPC   C2E 4669   2.112   5.497   4.156 -0.0375  0.0813 -0.3640
   90POPC   C2F 4670   2.050   5.427   4.036 -0.7085  0.2701 -0.1340
   90POPC   C2G 4671   2.111   5.496   3.913 -0.2979  0.0094 -0.0788
   90POPC   C2H 4672   2.040   5.463   3.782 -0.9650 -0.1881  0.3253
   90POPC   C2I 4673   2.005   5.577   3.686  0.4326 -0.1091 -0.1157
   90POPC   C2J 4674   2.125   5.665   3.650  0.6440 -0.1105  0.5586
   90POPC   C2K 4675   2.085   5.724   3.514 -0.1117 -0.2680  0.7030
   90POPC   C2L 4676   2.166   5.846   3.468 -0.2218 -0.4945 -0.0952
   90POPC   C2M 4677   2.111   5.882   3.330  0.3453  0.7011 -0.0180
   90POPC   C2N 4678   2.208   5.962   3.243  0.2039  0.2111 -0.6306
   90POPC   C2O 4679   2.137   6.033   3.128 -0.2935  0.5289 -0.1271
   90POPC   C2P 4680   2.242   6.118   3.056  0.1826  0.0062 -0.0570
   91POPC   CN1 4681   5.298   5.059   4.546 -0.3459 -0.4104  0.0356
   91POPC   CN2 4682   5.416   4.899   4.425  0.7494  0.5289 -0.2493
   91POPC   CN3 4683   5.337   4.847   4.642 -0.2110  0.0629 -0.1516
   91POPC   NTM 4684   5.398   4.953   4.561  0.0533 -0.0565 -0.1085
   91POPC    CA 4685   5.526   5.010   4.604 -0.1813  0.1243  0.3536
   91POPC    CB 4686   5.640   4.914   4.639  0.0543  0.2015 -0.1856
   91POPC    OA 4687   5.680   4.842   4.523 -0.0249 -0.1408 -0.0036
   91POPC     P 4688   5.831   4.786   4.515 -0.0506 -0.2393  0.2047
   91POPC    OB 4689   5.861   4.728   4.383 -0.3246  0.0796  0.0020
   91POPC    OC 4690   5.862   4.729   4.648  0.4342 -0.3077  0.0648
   91POPC    OD 4691   5.907   4.928   4.521 -0.3600 -0.0812  0.4232
   91POPC    CC 4692   5.888   4.997   4.397  0.3910  0.3016  0.5188
   91POPC    CD 4693   5.854   5.146   4.410  0.4159  0.3257  0.3039
   91POPC    OE 4694   5.819   5.210   4.287 -0.3206 -0.0350  0.3166
   91POPC   C1A 4695   5.693   5.193   4.249 -0.1702  0.3250 -0.3634
   91POPC    OF 4696   5.603   5.147   4.320 -0.2770  0.0661 -0.6663
   91POPC   C1B 4697   5.673   5.251   4.114 -0.1997  0.1129 -0.4505
   91POPC   C1C 4698   5.572   5.181   4.023 -0.3034 -0.0247 -0.2334
   91POPC   C1D 4699   5.548   5.259   3.893 -0.2944  0.0632 -0.1821
   91POPC   C1E 4700   5.452   5.185   3.800 -0.5144  0.3167 -0.1567
   91POPC   C1F 4701   5.443   5.257   3.666 -0.0795  0.6192 -0.0254
   91POPC   C1G 4702   5.353   5.171   3.577  0.0841  0.0316  0.3749
   91POPC   C1H 4703   5.301   5.265   3.469  0.3218 -0.1798  0.0747
   91POPC   C1I 4704   5.218   5.190   3.364  0.3419 -0.2143  0.0837
   91POPC   C1J 4705   5.266   5.199   3.240 -0.6158  0.2936 -0.2534
   91POPC   C1K 4706   5.379   5.296   3.206 -0.2507 -0.1065 -0.1809
   91POPC   C1L 4707   5.381   5.324   3.055  0.5474  0.3132 -0.1007
   91POPC   C1M 4708   5.517   5.381   3.016  0.4122  0.5293 -0.2618
   91POPC   C1N 4709   5.526   5.400   2.864  0.1584  0.3954 -0.2948
   91POPC   C1O 4710   5.452   5.527   2.824 -0.0480  0.4647  0.3004
   91POPC   C1P 4711   5.457   5.582   2.681 -0.0722 -0.4236 -0.0485
   91POPC   C1Q 4712   5.600   5.584   2.628 -0.1198  0.4400 -0.1583
   91POPC   C1R 4713   5.614   5.646   2.489  0.0728 -0.0811 -0.3718
   91POPC    CE 4714   5.963   5.210   4.496  0.4572  0.1177  0.4087
   91POPC    OG 4715   6.073   5.268   4.426  0.3784 -0.3469 -0.1046
   91POPC   C2A 4716   6.064   5.401   4.437 -0.1498 -0.3949  0.0904
   91POPC    OH 4717   6.006   5.451   4.533  0.3783 -0.3363  0.3868
   91POPC   C2B 4718   6.163   5.481   4.361 -0.2177 -0.6521 -0.2754
   91POPC   C2C 4719   6.096   5.562   4.249  0.5483 -0.6073 -0.7079
   91POPC   C2D 4720   6.029   5.491   4.131  0.4698 -0.9394 -0.4660
   91POPC   C2E 4721   6.136   5.442   4.034  0.5104 -0.1764 -0.8102
   91POPC   C2F 4722   6.084   5.350   3.924 -0.1919 -0.3390 -0.3466
   91POPC   C2G 4723   5.964   5.400   3.844 -0.2874 -0.0567 -0.0289
   91POPC   C2H 4724   5.911   5.284   3.759 -0.4007  0.2068 -0.3199
   91POPC   C2I 4725   5.993   5.252   3.634 -0.0773 -0.1159 -0.0286
   91POPC   C2J 4726   5.927   5.135   3.562  0.3639 -0.5441  0.2589
   91POPC   C2K 4727   5.998   5.103   3.430 -0.1493  0.3134 -0.2346
   91POPC   C2L 4728   5.914   4.989   3.373  0.3463 -0.4625  0.5670
   91POPC   C2M 4729   5.968   4.943   3.237 -0.8662 -0.0266 -0.0714
   91POPC   C2N 4730   5.886   4.821   3.195 -0.5076 -0.3710  0.2144
   91POPC   C2O 4731   5.927   4.771   3.056  0.2055  0.2217  0.2047
   91POPC   C2P 4732   5.927   4.874   2.943  0.7625 -0.3094 -0.2879
   92POPC   CN1 4733   1.647   2.662   4.551 -0.1107 -0.1812 -0.2273
   92POPC   CN2 4734   1.744   2.462   4.603 -0.0968 -1.2503  0.7668
   92POPC   CN3 4735   1.504   2.479   4.593  0.0464  0.3840 -0.7957
   92POPC   NTM 4736   1.628   2.545   4.637  0.2433 -0.3051 -0.3162
   92POPC    CA 4737   1.621   2.581   4.780 -0.4936  0.0431 -0.4347
   92POPC    CB 4738   1.649   2.477   4.888 -0.1792 -0.0500 -0.6029
   92POPC    OA 4739   1.576   2.354   4.877  0.4729 -0.4250 -0.8092
   92POPC     P 4740   1.576   2.264   5.010  0.0937  0.0833 -0.4597
   92POPC    OB 4741   1.452   2.322   5.066  0.3180 -0.2622  0.4096
   92POPC    OC 4742   1.714   2.275   5.062  0.0856  0.0841 -0.4382
   92POPC    OD 4743   1.569   2.116   4.945 -0.5143 -0.1225  0.0556
   92POPC    CC 4744   1.688   2.082   4.874 -0.3218  0.2029  0.2164
   92POPC    CD 4745   1.713   1.933   4.847  0.0531  0.2998  0.0200
   92POPC    OE 4746   1.806   1.912   4.740 -0.0789  0.0455 -0.0447
   92POPC   C1A 4747   1.869   1.796   4.724  0.2476  0.2338 -0.1252
   92POPC    OF 4748   1.890   1.718   4.817 -0.3077  0.2444  0.0110
   92POPC   C1B 4749   1.939   1.790   4.593  0.5589 -0.2782  0.0596
   92POPC   C1C 4750   1.839   1.739   4.489  0.7557 -0.6775  0.0674
   92POPC   C1D 4751   1.894   1.720   4.347  0.3172 -0.2939 -0.1549
   92POPC   C1E 4752   1.784   1.719   4.241 -0.2645 -0.4348  0.4389
   92POPC   C1F 4753   1.833   1.715   4.096 -0.1848  0.0694  0.4503
   92POPC   C1G 4754   1.911   1.838   4.048  0.0560 -0.2446  0.0250
   92POPC   C1H 4755   1.832   1.953   3.984 -0.5068 -0.5549  0.1499
   92POPC   C1I 4756   1.793   1.911   3.842  0.2408 -0.2631 -0.1495
   92POPC   C1J 4757   1.746   2.000   3.755  0.6510  0.0252 -0.0831
   92POPC   C1K 4758   1.744   2.150   3.786  0.5031  0.0800 -0.3508
   92POPC   C1L 4759   1.612   2.214   3.742  0.2768 -0.2162 -0.1174
   92POPC   C1M 4760   1.609   2.367   3.736  0.1142 -0.2344 -0.5146
   92POPC   C1N 4761   1.730   2.425   3.663  0.4185  0.3958  0.4645
   92POPC   C1O 4762   1.689   2.447   3.517  0.0660 -0.7661  0.3788
   92POPC   C1P 4763   1.560   2.527   3.497  0.5582  0.0061  0.2645
   92POPC   C1Q 4764   1.517   2.522   3.350  0.3105 -0.0251  0.3375
   92POPC   C1R 4765   1.407   2.626   3.328  0.4248  0.0058 -0.0868
   92POPC    CE 4766   1.576   1.881   4.805  0.3340 -0.1829 -0.3082
   92POPC    OG 4767   1.536   1.878   4.667 -0.3281 -0.4793 -0.1150
   92POPC   C2A 4768   1.443   1.959   4.618  0.0004  0.0974  0.2035
   92POPC    OH 4769   1.372   2.022   4.696 -0.0432  0.5563 -0.2021
   92POPC   C2B 4770   1.450   1.990   4.473 -0.1657 -0.0628  0.1615
   92POPC   C2C 4771   1.567   2.083   4.441 -0.1334 -0.1691 -0.0277
   92POPC   C2D 4772   1.611   2.075   4.294 -0.0249 -0.6720  0.0300
   92POPC   C2E 4773   1.725   2.172   4.261 -0.2364 -0.4149  0.0567
   92POPC   C2F 4774   1.854   2.149   4.339 -0.3682  0.3023  0.4953
   92POPC   C2G 4775   1.941   2.271   4.369  0.0083  0.0728  0.3483
   92POPC   C2H 4776   1.969   2.359   4.247 -0.3198 -0.7128 -0.2999
   92POPC   C2I 4777   2.070   2.299   4.149 -0.2578 -0.3012 -0.4929
   92POPC   C2J 4778   2.050   2.350   4.006  0.1258  0.5817 -0.2356
   92POPC   C2K 4779   2.140   2.287   3.900  0.1936 -0.0895  0.2181
   92POPC   C2L 4780   2.093   2.319   3.758  0.0610  0.1592  0.3171
   92POPC   C2M 4781   2.098   2.467   3.720  0.0898  0.1415  0.2523
   92POPC   C2N 4782   2.244   2.510   3.716  0.0534  0.2165 -0.2556
   92POPC   C2O 4783   2.297   2.441   3.590  0.2974 -0.2910  0.1229
   92POPC   C2P 4784   2.444   2.479   3.573  0.2536 -0.3880 -0.5049
   93POPC   CN1 4785   6.116   1.575   4.470  0.4112 -0.1382  0.6065
   93POPC   CN2 4786   6.112   1.461   4.672 -0.2217 -0.3648 -0.2204
   93POPC   CN3 4787   5.906   1.486   4.522 -0.5293  0.6464  0.0165
   93POPC   NTM 4788   6.027   1.543   4.583 -0.2586 -0.0356  0.1142
   93POPC    CA 4789   5.972   1.666   4.640 -0.1654 -0.1642  0.4876
   93POPC    CB 4790   6.053   1.742   4.745  0.1274  0.4040 -0.1407
   93POPC    OA 4791   6.174   1.794   4.689  0.1790  0.5693  0.1236
   93POPC     P 4792   6.279   1.812   4.810  0.2650 -0.3796  0.1956
   93POPC    OB 4793   0.008   1.675   4.851  0.2382 -0.5161 -0.2250
   93POPC    OC 4794   6.225   1.911   4.906 -0.1639  0.0237 -0.4546
   93POPC    OD 4795   0.082   1.877   4.716  0.0284 -0.2722 -0.0175
   93POPC    CC 4796   0.145   1.805   4.610 -0.5805  0.2812 -0.7638
   93POPC    CD 4797   0.251   1.699   4.642 -0.7475  0.3653  0.0858
   93POPC    OE 4798   0.388   1.716   4.605 -0.6532 -0.0226  0.2553
   93POPC   C1A 4799   0.471   1.764   4.698 -0.3373 -0.3165  0.1272
   93POPC    OF 4800   0.431   1.792   4.811 -0.2423 -0.0645  0.0982
   93POPC   C1B 4801   0.614   1.773   4.661 -0.3166 -0.1310  0.2489
   93POPC   C1C 4802   0.689   1.653   4.719 -0.0773  0.1289  0.4735
   93POPC   C1D 4803   0.730   1.551   4.613 -0.8605  0.0881  0.2087
   93POPC   C1E 4804   0.646   1.423   4.621 -0.2158 -0.3314  0.2942
   93POPC   C1F 4805   0.693   1.353   4.493 -0.6613  0.0605 -0.0876
   93POPC   C1G 4806   0.616   1.221   4.490  0.3405 -0.5303 -0.2905
   93POPC   C1H 4807   0.646   1.146   4.360  0.8052 -0.6095 -0.1391
   93POPC   C1I 4808   0.574   1.012   4.343  0.2352 -0.2869 -0.3020
   93POPC   C1J 4809   0.565   0.959   4.222 -0.1918  0.0988 -0.4426
   93POPC   C1K 4810   0.643   1.027   4.109  0.6157 -0.4051 -0.1966
   93POPC   C1L 4811   0.671   0.938   3.987  0.0165  0.2164 -0.7956
   93POPC   C1M 4812   0.537   0.919   3.915 -0.1182 -0.2706 -0.4265
   93POPC   C1N 4813   0.564   0.816   3.805  0.2373 -0.5143 -0.1134
   93POPC   C1O 4814   0.459   0.800   3.695  0.0521  0.2985 -0.0608
   93POPC   C1P 4815   0.513   0.704   3.588 -0.0770  0.0822  0.0686
   93POPC   C1Q 4816   0.443   0.690   3.452 -0.1361 -0.4229  0.1502
   93POPC   C1R 4817   0.512   0.581   3.371  0.3626  0.0673 -0.0896
   93POPC    CE 4818   0.199   1.566   4.588 -0.3309  0.2616 -0.0641
   93POPC    OG 4819   0.172   1.561   4.448  0.1189  0.2535 -0.1534
   93POPC   C2A 4820   0.109   1.455   4.398  0.5787 -0.2836  0.3888
   93POPC    OH 4821   0.034   1.386   4.466 -0.4168  0.0612 -0.3273
   93POPC   C2B 4822   0.129   1.451   4.251  0.2745  0.5520  0.3147
   93POPC   C2C 4823   0.052   1.565   4.185 -0.1043 -0.0107 -0.2211
   93POPC   C2D 4824   0.069   1.558   4.033  0.2206  0.0890 -0.1896
   93POPC   C2E 4825   6.303   1.666   3.955  0.2875 -0.4318 -0.9874
   93POPC   C2F 4826   0.034   1.804   4.006 -0.6240 -0.3668 -0.4029
   93POPC   C2G 4827   0.029   1.913   3.899  0.3710 -0.3188 -0.4169
   93POPC   C2H 4828   0.044   2.055   3.953  0.0374 -0.3174 -0.3215
   93POPC   C2I 4829   0.045   2.174   3.856  0.0174  0.0895  0.1705
   93POPC   C2J 4830   6.226   2.190   3.774  0.3159 -0.4971 -0.4316
   93POPC   C2K 4831   6.245   2.204   3.623 -0.1401 -0.0005 -0.4445
   93POPC   C2L 4832   0.012   2.319   3.557 -0.0148  0.0604 -0.1933
   93POPC   C2M 4833   6.301   2.318   3.405  0.2129  0.6263 -0.2297
   93POPC   C2N 4834   0.048   2.194   3.337 -0.1986  0.1459  0.2914
   93POPC   C2O 4835   0.098   2.218   3.195 -0.0336 -0.0309  0.3192
   93POPC   C2P 4836   0.152   2.098   3.116  0.4055  0.6706 -0.4602
   94POPC   CN1 4837   2.004   4.809   5.006  0.3489 -0.0124  0.0277
   94POPC   CN2 4838   2.204   4.932   5.037  0.0533  0.0969  0.6709
   94POPC   CN3 4839   2.184   4.765   4.863 -0.0909  0.0576 -0.0395
   94POPC   NTM 4840   2.150   4.800   5.002  0.3589  0.1365  0.0495
   94POPC    CA 4841   2.184   4.703   5.107 -0.0704  0.1371  0.1883
   94POPC    CB 4842   2.323   4.640   5.098 -0.3353 -0.3315 -0.7839
   94POPC    OA 4843   2.431   4.734   5.101 -0.5834 -0.0543 -0.4782
   94POPC     P 4844   2.569   4.662   5.060 -0.3371  0.1996 -0.0969
   94POPC    OB 4845   2.555   4.516   5.081  0.4019  0.2614  0.9234
   94POPC    OC 4846   2.693   4.730   5.104  0.2311 -0.5761 -0.4794
   94POPC    OD 4847   2.553   4.682   4.901  0.1619 -0.5217 -0.2432
   94POPC    CC 4848   2.629   4.793   4.853  0.2852 -0.3298  0.3792
   94POPC    CD 4849   2.563   4.929   4.832  0.3416 -0.4061 -0.3254
   94POPC    OE 4850   2.469   4.925   4.724  0.1354 -0.1699 -0.1566
   94POPC   C1A 4851   2.390   5.030   4.706  0.0050 -0.1794  0.3546
   94POPC    OF 4852   2.362   5.107   4.799 -0.4632  0.5321 -0.3643
   94POPC   C1B 4853   2.312   5.031   4.580  0.8516  0.4858 -0.1717
   94POPC   C1C 4854   2.395   5.022   4.452  0.0880 -0.3479 -0.6175
   94POPC   C1D 4855   2.299   5.022   4.333 -0.1785  0.7890 -0.4068
   94POPC   C1E 4856   2.365   4.990   4.199  0.5918 -0.6705  0.3036
   94POPC   C1F 4857   2.259   4.981   4.089  0.5170 -0.0238  0.3206
   94POPC   C1G 4858   2.320   4.983   3.949 -0.3415  0.0310 -0.0587
   94POPC   C1H 4859   2.220   4.943   3.840  0.0089 -0.2244 -0.2868
   94POPC   C1I 4860   2.287   4.945   3.702  0.1534 -0.3031 -0.2177
   94POPC   C1J 4861   2.238   4.896   3.588  0.3589  0.0608 -0.4649
   94POPC   C1K 4862   2.117   4.803   3.597  0.8907 -0.6186 -0.2567
   94POPC   C1L 4863   2.113   4.715   3.472 -0.0095 -0.8687 -0.0631
   94POPC   C1M 4864   1.986   4.629   3.471 -0.0466 -0.8142 -0.0458
   94POPC   C1N 4865   1.971   4.535   3.352  0.1938 -0.3520 -0.4468
   94POPC   C1O 4866   2.089   4.438   3.344  0.8309  0.3948 -0.2526
   94POPC   C1P 4867   2.072   4.336   3.230 -0.1036  0.1935  0.0566
   94POPC   C1Q 4868   2.063   4.392   3.088  0.8141 -0.2573 -0.1861
   94POPC   C1R 4869   2.012   4.307   2.972 -0.2255 -0.1813  0.2054
   94POPC    CE 4870   2.678   5.028   4.813 -0.1393  0.1213 -0.5512
   94POPC    OG 4871   2.752   5.009   4.692  1.0114 -0.1249  0.1769
   94POPC   C2A 4872   2.745   5.108   4.604 -0.0489 -0.0484  0.3454
   94POPC    OH 4873   2.651   5.188   4.609  0.3429  0.4387 -0.0724
   94POPC   C2B 4874   2.853   5.107   4.503  0.0413 -0.2563  0.4440
   94POPC   C2C 4875   2.823   5.056   4.361  0.1442 -0.1109  0.3704
   94POPC   C2D 4876   2.947   5.057   4.272  0.1858  0.0504  0.4285
   94POPC   C2E 4877   2.925   4.982   4.141 -0.2729  0.5067  0.2417
   94POPC   C2F 4878   3.060   4.948   4.077 -0.5677  0.2759 -0.2621
   94POPC   C2G 4879   3.056   4.834   3.975  0.3757 -0.3345  0.3735
   94POPC   C2H 4880   3.191   4.815   3.906  0.0871  0.3316 -0.3792
   94POPC   C2I 4881   3.157   4.730   3.783 -0.7337  0.3089 -0.1475
   94POPC   C2J 4882   3.267   4.710   3.678 -0.4240  0.7014  0.1024
   94POPC   C2K 4883   3.219   4.633   3.555  0.0695 -0.1870  0.4539
   94POPC   C2L 4884   3.111   4.714   3.484  0.2593 -0.0319  0.3426
   94POPC   C2M 4885   3.067   4.644   3.355 -0.9497 -0.4591  0.9661
   94POPC   C2N 4886   2.998   4.514   3.394 -0.1952 -1.1465  0.0319
   94POPC   C2O 4887   2.939   4.454   3.266 -0.0336 -0.5686 -0.3169
   94POPC   C2P 4888   2.802   4.509   3.224 -0.2938 -0.8857  0.1012
   95POPC   CN1 4889   3.435   1.522   4.619 -0.0622  0.0204  0.2526
   95POPC   CN2 4890   3.638   1.491   4.503  0.2614  0.4648 -0.4243
   95POPC   CN3 4891   3.492   1.314   4.503  0.0606 -0.0046  0.5100
   95POPC   NTM 4892   3.540   1.424   4.589  0.2876  0.5580 -0.3210
   95POPC    CA 4893   3.603   1.385   4.716 -0.1220  0.2148 -0.2203
   95POPC    CB 4894   3.698   1.268   4.742 -0.2122  0.0577 -0.6003
   95POPC    OA 4895   3.816   1.271   4.660  0.1736  0.0882 -0.0501
   95POPC     P 4896   3.838   1.162   4.544  0.1156  0.0598 -0.0349
   95POPC    OB 4897   3.731   1.063   4.565 -0.2703  0.5077  0.1353
   95POPC    OC 4898   3.979   1.121   4.527  0.0058 -0.2617 -0.1597
   95POPC    OD 4899   3.786   1.233   4.409 -0.1878  0.1710  0.1403
   95POPC    CC 4900   3.840   1.176   4.290 -0.3502 -0.0580  0.1764
   95POPC    CD 4901   3.730   1.105   4.211 -0.1995 -0.1130  0.0159
   95POPC    OE 4902   3.776   1.044   4.090  0.1047  0.2470 -0.0494
   95POPC   C1A 4903   3.838   0.927   4.082 -0.2702  0.0561 -0.1705
   95POPC    OF 4904   3.838   0.848   4.176  0.6721 -0.1647 -0.3448
   95POPC   C1B 4905   3.907   0.896   3.955  0.1116 -0.1818  0.0915
   95POPC   C1C 4906   3.873   0.755   3.907  0.4694 -0.2828  0.1293
   95POPC   C1D 4907   3.976   0.706   3.805  0.1690 -0.3476 -0.1455
   95POPC   C1E 4908   3.952   0.564   3.754 -0.8966 -0.5031  0.7458
   95POPC   C1F 4909   3.829   0.560   3.663 -0.3362  0.0034 -0.0479
   95POPC   C1G 4910   3.762   0.424   3.642 -0.6560  0.0952  0.3694
   95POPC   C1H 4911   3.642   0.459   3.555 -0.1351  0.3313 -0.2605
   95POPC   C1I 4912   3.557   0.332   3.548  0.1841  0.1129 -0.2026
   95POPC   C1J 4913   3.436   0.348   3.494  0.0969  0.2995  0.0477
   95POPC   C1K 4914   3.401   0.482   3.429 -0.5420  0.0985 -0.0248
   95POPC   C1L 4915   3.359   0.455   3.284 -0.0958  0.1822 -0.1729
   95POPC   C1M 4916   3.284   0.564   3.206 -0.0871 -0.0866 -0.5593
   95POPC   C1N 4917   3.285   0.542   3.055  0.1141 -0.1400 -0.5513
   95POPC   C1O 4918   3.179   0.443   3.007 -0.5390  0.0787  0.4250
   95POPC   C1P 4919   3.218   0.410   2.863  0.0082  0.1870  0.5498
   95POPC   C1Q 4920   3.102   0.373   2.771  0.4808 -0.3235  0.1512
   95POPC   C1R 4921   3.147   0.341   2.628  0.5843  0.4674  0.0035
   95POPC    CE 4922   3.634   1.222   4.190 -0.2216 -0.0520  0.4529
   95POPC    OG 4923   3.668   1.338   4.114  0.1921  0.0038  0.7192
   95POPC   C2A 4924   3.590   1.446   4.111  0.1440 -0.0410  0.2169
   95POPC    OH 4925   3.523   1.464   4.212 -0.4388  0.0682 -0.1869
   95POPC   C2B 4926   3.616   1.546   4.005  0.1701 -0.4251 -0.1384
   95POPC   C2C 4927   3.508   1.542   3.897  0.4309  0.5878 -0.4457
   95POPC   C2D 4928   3.525   1.657   3.798  0.4694  0.0825 -1.0349
   95POPC   C2E 4929   3.648   1.631   3.712  0.9010 -0.5397 -0.2348
   95POPC   C2F 4930   3.617   1.520   3.611 -0.2500 -0.2064 -0.2526
   95POPC   C2G 4931   3.737   1.493   3.520 -0.2242 -0.4175 -0.1558
   95POPC   C2H 4932   3.700   1.391   3.413 -0.4259 -0.1397 -0.3527
   95POPC   C2I 4933   3.764   1.439   3.282  0.2626  0.1185  0.0743
   95POPC   C2J 4934   3.732   1.356   3.158 -0.5213 -0.1824  0.4714
   95POPC   C2K 4935   3.836   1.381   3.049 -0.4512  0.2196  0.6264
   95POPC   C2L 4936   3.978   1.328   3.069 -0.5157 -0.4900 -0.6638
   95POPC   C2M 4937   4.066   1.302   2.946  0.1462 -0.0188 -0.2960
   95POPC   C2N 4938   4.208   1.252   2.972  0.0448 -0.0388  0.2280
   95POPC   C2O 4939   4.227   1.106   2.930  0.1605 -0.2286  0.9281
   95POPC   C2P 4940   4.377   1.078   2.922  0.1159 -0.2432  0.0787
   96POPC   CN1 4941   1.422   3.157   4.726  0.3348  0.2383 -0.2769
   96POPC   CN2 4942   1.335   3.351   4.834 -0.1661 -0.3818 -0.3107
   96POPC   CN3 4943   1.245   3.144   4.881 -0.1543  0.0100 -0.5649
   96POPC   NTM 4944   1.298   3.224   4.770 -0.0642 -0.2211 -0.6891
   96POPC    CA 4945   1.207   3.231   4.655  0.0056 -0.6097 -0.7697
   96POPC    CB 4946   1.075   3.304   4.680  0.1624 -0.5284 -0.1739
   96POPC    OA 4947   1.004   3.252   4.793  0.0484 -0.2126 -0.0992
   96POPC     P 4948   0.922   3.361   4.880 -0.0115 -0.1062 -0.2855
   96POPC    OB 4949   0.841   3.294   4.984  0.2327 -0.5001 -0.3424
   96POPC    OC 4950   0.869   3.460   4.784  0.0443 -0.3978 -0.6228
   96POPC    OD 4951   1.060   3.409   4.948 -0.0604  0.0427 -0.2925
   96POPC    CC 4952   1.043   3.474   5.074 -0.5582  0.1269 -0.4008
   96POPC    CD 4953   0.995   3.619   5.091  0.1101  0.2986  0.0717
   96POPC    OE 4954   1.038   3.708   4.988 -0.4517  0.0234 -0.4117
   96POPC   C1A 4955   0.952   3.794   4.933 -0.2853  0.2612 -0.3051
   96POPC    OF 4956   0.838   3.798   4.979 -0.1918 -0.0557 -0.0433
   96POPC   C1B 4957   1.005   3.866   4.815  0.2718  0.5512  0.1160
   96POPC   C1C 4958   0.974   3.783   4.690 -0.2381  0.3401  0.3796
   96POPC   C1D 4959   0.957   3.872   4.567  0.7824  0.0172 -0.0097
   96POPC   C1E 4960   0.965   3.793   4.436 -0.1841 -0.2816  0.1026
   96POPC   C1F 4961   1.096   3.717   4.417 -0.1358 -0.0992 -0.2916
   96POPC   C1G 4962   1.107   3.650   4.280 -0.3262 -0.1578 -0.2777
   96POPC   C1H 4963   1.226   3.554   4.271 -0.1603 -0.0164  0.3776
   96POPC   C1I 4964   1.234   3.484   4.135 -0.2730  0.4430  0.1328
   96POPC   C1J 4965   1.257   3.353   4.136 -0.0394  0.4861  0.7223
   96POPC   C1K 4966   1.272   3.257   4.254  0.3365 -0.2814  0.0565
   96POPC   C1L 4967   1.304   3.111   4.220 -0.8194 -0.6305  0.3970
   96POPC   C1M 4968   1.344   3.039   4.349 -0.0750  0.0735  0.5722
   96POPC   C1N 4969   1.362   2.888   4.337  0.3826  0.1647  0.0617
   96POPC   C1O 4970   1.485   2.861   4.251  0.0590 -0.1536 -0.3048
   96POPC   C1P 4971   1.502   2.713   4.216  0.2782 -0.3204  0.5003
   96POPC   C1Q 4972   1.632   2.689   4.139  0.0746 -0.1277  0.0937
   96POPC   C1R 4973   1.661   2.539   4.133  0.4144 -0.0800  0.5062
   96POPC    CE 4974   1.015   3.655   5.238  0.1239 -0.2874  0.2178
   96POPC    OG 4975   1.151   3.682   5.272  0.0249  0.0578  0.3452
   96POPC   C2A 4976   1.188   3.807   5.246 -0.1175  0.0274 -0.0043
   96POPC    OH 4977   1.106   3.893   5.278  0.1402  0.1647  0.2996
   96POPC   C2B 4978   1.334   3.818   5.223 -0.1263  0.5156  0.1682
   96POPC   C2C 4979   1.372   3.891   5.094  0.3142  0.0807  0.0501
   96POPC   C2D 4980   1.366   4.044   5.104 -0.5073  0.0593 -0.0925
   96POPC   C2E 4981   1.431   4.101   4.978  0.2960  0.2823  0.4218
   96POPC   C2F 4982   1.400   4.251   4.979  0.3956  0.3042  0.1409
   96POPC   C2G 4983   1.269   4.290   4.911 -0.0089 -0.3724  0.5205
   96POPC   C2H 4984   1.255   4.259   4.762 -0.0516  0.4213  0.3546
   96POPC   C2I 4985   1.365   4.301   4.663 -0.2880  0.3887  0.0757
   96POPC   C2J 4986   1.313   4.332   4.523 -0.2260 -0.0813 -0.0538
   96POPC   C2K 4987   1.277   4.199   4.458 -0.2913 -0.0682 -0.0447
   96POPC   C2L 4988   1.262   4.212   4.306  0.0749 -0.1234 -0.0852
   96POPC   C2M 4989   1.198   4.094   4.233 -0.1358 -0.1500  0.1409
   96POPC   C2N 4990   1.171   4.127   4.086  0.5785 -0.4164 -0.0539
   96POPC   C2O 4991   1.125   3.994   4.026 -0.5825  0.0437 -0.2035
   96POPC   C2P 4992   1.131   3.991   3.873  0.4352 -0.1817 -0.1688
   97POPC   CN1 4993   5.094   2.233   4.631 -0.5423 -0.0866  0.5466
   97POPC   CN2 4994   5.265   2.395   4.610 -0.6710  0.0805 -0.1412
   97POPC   CN3 4995   5.321   2.203   4.723  0.3737  0.4976 -0.2795
   97POPC   NTM 4996   5.208   2.294   4.700 -0.1751 -0.1083 -0.0369
   97POPC    CA 4997   5.179   2.360   4.828 -0.2272  0.5407 -0.3773
   97POPC    CB 4998   5.102   2.492   4.840 -0.6881  0.2857 -0.4942
   97POPC    OA 4999   4.970   2.480   4.787 -0.8929 -0.2806  0.1196
   97POPC     P 5000   4.886   2.616   4.805 -0.0179  0.3137 -0.2224
   97POPC    OB 5001   4.977   2.732   4.796  0.0163  0.3076  0.0479
   97POPC    OC 5002   4.795   2.587   4.918 -0.2691 -0.4623 -0.6140
   97POPC    OD 5003   4.807   2.594   4.666 -0.1453 -0.0472 -0.0935
   97POPC    CC 5004   4.893   2.625   4.556  0.0549 -0.0371  0.0638
   97POPC    CD 5005   4.869   2.546   4.427  0.0082  0.0903 -0.0059
   97POPC    OE 5006   4.962   2.573   4.322  0.2200  0.3658  0.2502
   97POPC   C1A 5007   5.041   2.475   4.280 -0.0411  0.2716 -0.0254
   97POPC    OF 5008   5.057   2.368   4.338  0.7286  0.0960 -0.5364
   97POPC   C1B 5009   5.135   2.511   4.171 -0.1079 -0.4869 -0.3382
   97POPC   C1C 5010   5.085   2.481   4.030 -0.1887 -0.1831 -0.3737
   97POPC   C1D 5011   5.179   2.546   3.928  0.0209  0.6787  0.3566
   97POPC   C1E 5012   5.119   2.533   3.788  0.3500 -0.0699  0.2779
   97POPC   C1F 5013   5.126   2.398   3.717 -0.2655  0.0273  0.0239
   97POPC   C1G 5014   5.107   2.411   3.566 -0.2405 -0.0737  0.0118
   97POPC   C1H 5015   4.969   2.456   3.517 -0.0609  0.5575  0.0761
   97POPC   C1I 5016   4.862   2.347   3.531  0.2854  0.2085  0.0293
   97POPC   C1J 5017   4.742   2.380   3.483  0.0317 -0.0714  0.4611
   97POPC   C1K 5018   4.706   2.516   3.423 -0.1314 -0.2385  0.1745
   97POPC   C1L 5019   4.586   2.517   3.329 -0.2885  0.4199  0.3733
   97POPC   C1M 5020   4.450   2.469   3.381 -0.1962 -0.1173  0.1274
   97POPC   C1N 5021   4.354   2.431   3.268 -0.1082  0.3862 -0.1208
   97POPC   C1O 5022   4.214   2.427   3.331 -0.1869  0.2932 -0.3023
   97POPC   C1P 5023   4.109   2.381   3.230 -0.3651  0.0422 -0.0060
   97POPC   C1Q 5024   4.111   2.232   3.198  0.0305  0.0039  0.1997
   97POPC   C1R 5025   4.017   2.203   3.081  0.1893  0.2754  0.0031
   97POPC    CE 5026   4.722   2.563   4.389 -0.1225 -0.4282  0.2537
   97POPC    OG 5027   4.686   2.506   4.263 -0.1842 -0.0705  0.1107
   97POPC   C2A 5028   4.564   2.534   4.218 -0.1289 -0.0986 -0.0602
   97POPC    OH 5029   4.481   2.594   4.286  0.0067 -0.0370  0.0513
   97POPC   C2B 5030   4.539   2.467   4.088 -0.2894  0.3335 -0.2513
   97POPC   C2C 5031   4.629   2.512   3.973  0.2804 -0.1414  0.0077
   97POPC   C2D 5032   4.604   2.659   3.939 -0.2350 -0.1728  0.2443
   97POPC   C2E 5033   4.726   2.718   3.868 -0.4758 -0.4514 -0.4144
   97POPC   C2F 5034   4.703   2.863   3.824  0.3629 -0.4123 -0.7439
   97POPC   C2G 5035   4.816   2.928   3.743  0.4886  0.0924 -0.1701
   97POPC   C2H 5036   4.847   2.853   3.614 -0.3114  0.2117 -0.4351
   97POPC   C2I 5037   4.955   2.911   3.523 -0.2406  0.3782 -0.2463
   97POPC   C2J 5038   4.987   2.827   3.399 -0.5694 -0.6053  0.3269
   97POPC   C2K 5039   4.882   2.850   3.290  0.1238 -0.2608 -0.2720
   97POPC   C2L 5040   4.914   2.797   3.150 -0.4299 -0.3678 -0.3615
   97POPC   C2M 5041   4.812   2.837   3.044 -0.1068  0.3302 -0.4171
   97POPC   C2N 5042   4.802   2.742   2.924  0.3963  0.2566 -0.4036
   97POPC   C2O 5043   4.721   2.614   2.951  0.1734  0.3649 -0.5521
   97POPC   C2P 5044   4.758   2.517   2.839 -0.2412 -0.2724 -0.1380
   98POPC   CN1 5045   5.067   3.073   4.745  0.1068  0.2380 -0.2478
   98POPC   CN2 5046   5.103   3.085   4.981  0.0226  0.0193 -0.3325
   98POPC   CN3 5047   5.154   3.257   4.854 -0.2596 -0.3137  0.5247
   98POPC   NTM 5048   5.164   3.110   4.849  0.3081 -0.2559 -0.2544
   98POPC    CA 5049   5.303   3.067   4.830  0.3168 -0.1141 -0.5110
   98POPC    CB 5050   5.344   2.920   4.832 -0.0471 -0.2108  0.2429
   98POPC    OA 5051   5.482   2.894   4.802  0.0052  0.2138  0.1089
   98POPC     P 5052   5.508   2.737   4.775 -0.4872  0.1273  0.1297
   98POPC    OB 5053   5.397   2.643   4.801 -0.1282 -0.3693 -0.1176
   98POPC    OC 5054   5.642   2.700   4.825 -0.4321 -0.3024 -0.3298
   98POPC    OD 5055   5.535   2.743   4.616 -0.1738  0.1452  0.1841
   98POPC    CC 5056   5.408   2.730   4.552 -0.1670  0.0596  0.1869
   98POPC    CD 5057   5.402   2.801   4.416  0.0366 -0.1477  0.0699
   98POPC    OE 5058   5.275   2.815   4.354 -0.1304 -0.5568  0.3143
   98POPC   C1A 5059   5.185   2.898   4.406 -0.1400 -0.4059  0.0573
   98POPC    OF 5060   5.218   2.953   4.510 -0.0737  0.0475 -0.1984
   98POPC   C1B 5061   5.056   2.913   4.334  0.2963 -0.0325 -0.6647
   98POPC   C1C 5062   5.043   3.052   4.272 -0.4212  0.1112 -0.2084
   98POPC   C1D 5063   4.914   3.054   4.190 -0.1471  0.2375 -0.6400
   98POPC   C1E 5064   4.894   3.187   4.116 -0.0518  0.5801 -0.0522
   98POPC   C1F 5065   4.981   3.204   3.992 -0.0447 -0.5879 -0.2245
   98POPC   C1G 5066   4.924   3.314   3.902  0.3193  0.0171  0.2733
   98POPC   C1H 5067   4.971   3.294   3.758  0.3314  0.3590  0.2299
   98POPC   C1I 5068   5.108   3.360   3.740  0.3765  0.0217 -0.7094
   98POPC   C1J 5069   5.114   3.482   3.687  0.0641  0.4502  0.2228
   98POPC   C1K 5070   4.986   3.549   3.636 -0.2138 -0.0886  0.2114
   98POPC   C1L 5071   5.004   3.698   3.610 -0.1798 -0.1328 -0.0207
   98POPC   C1M 5072   4.875   3.754   3.550 -0.1261 -0.3973 -0.3810
   98POPC   C1N 5073   4.846   3.699   3.410  0.1644 -0.1128 -0.5551
   98POPC   C1O 5074   4.737   3.785   3.344 -0.0140 -0.1599 -0.3255
   98POPC   C1P 5075   4.729   3.747   3.196 -0.2836  0.1500 -0.3893
   98POPC   C1Q 5076   4.612   3.808   3.118 -0.3500  0.3306 -0.1524
   98POPC   C1R 5077   4.634   3.763   2.973 -0.0972 -0.2368  0.0581
   98POPC    CE 5078   5.496   2.721   4.325  0.2318 -0.0840  0.2137
   98POPC    OG 5079   5.532   2.774   4.197 -0.1430 -0.3084  0.0133
   98POPC   C2A 5080   5.622   2.715   4.119  0.0706 -0.0097  0.0324
   98POPC    OH 5081   5.688   2.627   4.176 -0.1081 -0.0178  0.2260
   98POPC   C2B 5082   5.634   2.780   3.987 -0.8504  0.2828  0.0921
   98POPC   C2C 5083   5.543   2.722   3.878 -0.3665  0.2456 -0.2918
   98POPC   C2D 5084   5.554   2.799   3.746  0.4364  0.1372 -0.2955
   98POPC   C2E 5085   5.455   2.755   3.638 -0.3599  0.0420  0.4604
   98POPC   C2F 5086   5.464   2.870   3.537 -0.3925 -0.2394  0.1361
   98POPC   C2G 5087   5.411   2.826   3.401  0.1878 -0.1746 -0.1170
   98POPC   C2H 5088   5.413   2.927   3.286 -0.2385  0.2068  0.2069
   98POPC   C2I 5089   5.338   2.879   3.161 -0.7816  0.4336  0.4424
   98POPC   C2J 5090   5.389   2.957   3.040 -0.1684 -0.6616 -0.0186
   98POPC   C2K 5091   5.322   2.905   2.913 -0.3152  0.5723 -0.4590
   98POPC   C2L 5092   5.187   2.975   2.894 -0.2390  0.7077 -0.5040
   98POPC   C2M 5093   5.195   3.128   2.903  0.4039  0.6541 -0.1229
   98POPC   C2N 5094   5.067   3.195   2.852 -0.5764 -0.7089  0.4932
   98POPC   C2O 5095   5.083   3.333   2.916  0.5104 -0.5078 -0.1962
   98POPC   C2P 5096   4.954   3.412   2.899  0.5049 -0.4960 -0.1016
   99POPC   CN1 5097   4.174   2.404   4.317 -0.5772 -0.0924  0.3007
   99POPC   CN2 5098   3.999   2.466   4.440  0.1160  0.2054 -0.7919
   99POPC   CN3 5099   4.176   2.624   4.416 -0.2803 -0.2187  0.6991
   99POPC   NTM 5100   4.145   2.482   4.438  0.2098 -0.3340  0.6541
   99POPC    CA 5101   4.218   2.430   4.554  0.6452 -0.5710  0.2753
   99POPC    CB 5102   4.161   2.457   4.693  0.1101  0.3471 -0.1191
   99POPC    OA 5103   4.138   2.596   4.720 -0.1347  0.3394 -0.2835
   99POPC     P 5104   4.054   2.609   4.857  0.3386 -0.3159  0.0752
   99POPC    OB 5105   4.057   2.748   4.906  0.7817 -0.3487  0.1494
   99POPC    OC 5106   4.088   2.502   4.953 -0.0725 -0.2632  0.2820
   99POPC    OD 5107   3.906   2.596   4.796  0.2939  0.5354 -0.0125
   99POPC    CC 5108   3.856   2.722   4.750  0.1716  0.5808  0.2461
   99POPC    CD 5109   3.751   2.706   4.640  0.3316 -0.1136  0.1851
   99POPC    OE 5110   3.727   2.825   4.565 -0.2240 -0.1624  0.2836
   99POPC   C1A 5111   3.753   2.812   4.435  0.0434  0.6372  0.2511
   99POPC    OF 5112   3.835   2.728   4.400 -0.5341  0.1986 -0.0714
   99POPC   C1B 5113   3.670   2.903   4.352 -0.3669  0.2011  0.1776
   99POPC   C1C 5114   3.565   2.831   4.268  0.0731 -0.0362 -0.1743
   99POPC   C1D 5115   3.585   2.840   4.117  0.0992 -0.4261 -0.1958
   99POPC   C1E 5116   3.499   2.734   4.047  0.1446 -0.2523 -0.5182
   99POPC   C1F 5117   3.502   2.731   3.894  0.0139  0.6383 -0.5460
   99POPC   C1G 5118   3.644   2.704   3.844  0.1947 -0.2343  0.3969
   99POPC   C1H 5119   3.638   2.642   3.704  0.3804  0.0229  0.2736
   99POPC   C1I 5120   3.595   2.745   3.600 -0.1284 -0.4746 -0.0123
   99POPC   C1J 5121   3.688   2.794   3.519  0.1280 -0.9000  0.0232
   99POPC   C1K 5122   3.837   2.758   3.514  0.3472 -0.0180  0.0367
   99POPC   C1L 5123   3.927   2.863   3.578 -0.0953  0.6416 -0.4068
   99POPC   C1M 5124   4.076   2.847   3.544 -0.1830  0.0170 -0.5062
   99POPC   C1N 5125   4.170   2.942   3.619  0.2134 -0.6070 -0.2097
   99POPC   C1O 5126   4.315   2.905   3.588  0.4991  0.0442  0.3391
   99POPC   C1P 5127   4.343   2.925   3.439 -0.1829 -0.3548  0.1533
   99POPC   C1Q 5128   4.493   2.905   3.412  0.0796  0.9992  0.5407
   99POPC   C1R 5129   4.500   2.931   3.261  0.2503 -0.5630  0.2651
   99POPC    CE 5130   3.629   2.638   4.702  0.1047 -0.4709 -0.6429
   99POPC    OG 5131   3.527   2.605   4.607 -0.1779 -0.2753 -0.4080
   99POPC   C2A 5132   3.450   2.504   4.645 -0.5382  0.2843  0.3706
   99POPC    OH 5133   3.494   2.425   4.729  0.3238  0.4093  0.0399
   99POPC   C2B 5134   3.339   2.469   4.553 -0.0968  0.1689 -0.1229
   99POPC   C2C 5135   3.376   2.360   4.452 -0.4863  0.0878 -0.1805
   99POPC   C2D 5136   3.259   2.328   4.360 -0.6582 -0.2309  0.1468
   99POPC   C2E 5137   3.237   2.441   4.259  0.2720 -0.2105 -0.0395
   99POPC   C2F 5138   3.110   2.428   4.174  0.3029  0.4645 -0.1899
   99POPC   C2G 5139   3.108   2.510   4.045  0.4200  0.0365 -0.4657
   99POPC   C2H 5140   3.199   2.445   3.940  0.4493 -0.6227 -0.0321
   99POPC   C2I 5141   3.183   2.510   3.803  0.1718 -0.0977  0.2449
   99POPC   C2J 5142   3.241   2.429   3.686 -0.0438 -0.3131  0.2850
   99POPC   C2K 5143   3.215   2.510   3.558  0.0306 -0.1369  0.3806
   99POPC   C2L 5144   3.232   2.427   3.431 -0.1131  0.0866  0.2170
   99POPC   C2M 5145   3.259   2.519   3.311 -0.0786 -0.9029 -0.5452
   99POPC   C2N 5146   3.312   2.442   3.190  0.1041 -0.2618 -0.8788
   99POPC   C2O 5147   3.229   2.329   3.129 -0.8697  0.0108 -0.0715
   99POPC   C2P 5148   3.292   2.265   3.006  0.1904  0.4627  0.2325
  100POPC   CN1 5149   0.058   0.954   4.857 -0.1041  0.3337  0.1298
  100POPC   CN2 5150   6.261   0.827   5.016  0.5235  0.0444  0.2757
  100POPC   CN3 5151   0.089   0.716   4.851 -0.5606  0.1068 -0.0065
  100POPC   NTM 5152   6.301   0.824   4.875 -0.2357  0.3896  0.0495
  100POPC    CA 5153   6.186   0.825   4.783  0.0333  0.0657 -0.2952
  100POPC    CB 5154   6.077   0.723   4.812  0.2293  0.0663  0.4630
  100POPC    OA 5155   6.119   0.587   4.795  0.0928  0.0371  0.3553
  100POPC     P 5156   6.018   0.503   4.888 -0.3133 -0.1583 -0.2597
  100POPC    OB 5157   5.884   0.505   4.825 -0.2686 -0.3307 -0.3623
  100POPC    OC 5158   6.044   0.536   5.030  0.3353 -0.2322 -0.3614
  100POPC    OD 5159   6.086   0.361   4.854 -0.2852 -0.2315  0.1029
  100POPC    CC 5160   6.213   0.350   4.919  0.0410 -0.0641 -0.5065
  100POPC    CD 5161   0.003   0.258   4.848  0.4665 -0.1276  0.1766
  100POPC    OE 5162   0.047   0.294   4.717  0.1472 -0.0321  0.0967
  100POPC   C1A 5163   0.137   0.391   4.706  0.2587 -0.1573 -0.0985
  100POPC    OF 5164   0.220   0.418   4.792  0.1655  0.4528 -0.1922
  100POPC   C1B 5165   0.139   0.459   4.574 -0.0482 -0.0803 -0.0648
  100POPC   C1C 5166   0.281   0.486   4.524 -0.1752  0.1825 -0.2863
  100POPC   C1D 5167   0.264   0.533   4.380 -0.0635  0.3844 -0.2347
  100POPC   C1E 5168   0.392   0.591   4.322  0.0184  0.3578 -0.0796
  100POPC   C1F 5169   0.395   0.582   4.169 -0.0789 -0.1278 -0.0543
  100POPC   C1G 5170   0.537   0.551   4.120 -0.1798  0.0067 -0.4365
  100POPC   C1H 5171   0.514   0.495   3.979 -0.2290 -0.3331 -0.2959
  100POPC   C1I 5172   0.634   0.421   3.920  0.4201  0.8448 -0.4905
  100POPC   C1J 5173   0.619   0.352   3.807 -0.1978 -0.0140  0.0981
  100POPC   C1K 5174   0.477   0.324   3.757 -0.0463 -0.4181 -0.1064
  100POPC   C1L 5175   0.454   0.174   3.733 -0.2306 -0.3393 -0.4098
  100POPC   C1M 5176   0.323   0.146   3.657 -0.6804  0.4355  0.0633
  100POPC   C1N 5177   0.327   0.207   3.517 -0.4472 -0.1342 -0.1799
  100POPC   C1O 5178   0.192   0.182   3.448 -0.7360  1.4055 -0.2091
  100POPC   C1P 5179   0.190   0.247   3.310  0.7256 -0.3057 -1.0906
  100POPC   C1Q 5180   0.093   0.180   3.213 -0.2412  0.2736 -0.5474
  100POPC   C1R 5181   0.151   0.049   3.159  0.2414  0.3285 -0.1691
  100POPC    CE 5182   6.277   0.109   4.849 -0.4401  0.0862 -0.0682
  100POPC    OG 5183   6.154   0.081   4.783 -0.5167  0.4985 -0.1017
  100POPC   C2A 5184   6.138   6.304   4.722 -0.2083  0.4718 -0.1325
  100POPC    OH 5185   6.232   6.225   4.724 -0.1107  0.5925  0.0947
  100POPC   C2B 5186   6.007   6.279   4.658  0.1610 -0.4505 -0.5439
  100POPC   C2C 5187   5.985   6.128   4.647  1.0082 -0.5819 -0.5119
  100POPC   C2D 5188   5.897   6.085   4.529  0.0574  0.1173 -0.0666
  100POPC   C2E 5189   5.863   5.937   4.544 -0.0760  0.1330 -0.2109
  100POPC   C2F 5190   5.758   5.878   4.450 -0.1633 -0.0056 -0.0287
  100POPC   C2G 5191   5.816   5.857   4.309 -0.2211 -0.0661 -0.0440
  100POPC   C2H 5192   5.713   5.801   4.212 -0.1625  0.1700 -0.2439
  100POPC   C2I 5193   5.770   5.804   4.070  0.3764  0.5683 -0.0204
  100POPC   C2J 5194   5.649   5.789   3.976  0.5485 -0.0098 -0.1491
  100POPC   C2K 5195   5.580   5.655   4.006 -0.1137  0.1934 -0.7506
  100POPC   C2L 5196   5.432   5.652   3.969 -0.2151  0.7544 -0.4068
  100POPC   C2M 5197   5.416   5.670   3.818  0.3262  0.1089 -0.5437
  100POPC   C2N 5198   5.264   5.663   3.796  0.3209  0.1565 -0.5222
  100POPC   C2O 5199   5.229   5.704   3.653 -0.9145  0.1929 -0.2226
  100POPC   C2P 5200   5.274   5.842   3.605 -0.3417  0.1529  0.1879
  101POPC   CN1 5201   0.732   0.123   4.575  0.3031  0.1558  0.3034
  101POPC   CN2 5202   0.915   6.334   4.646  0.0499 -0.1522 -0.2168
  101POPC   CN3 5203   0.702   6.220   4.623  0.1134 -0.3330  0.2017
  101POPC   NTM 5204   0.769   0.007   4.657  0.0518 -0.2167 -0.1096
  101POPC    CA 5205   0.741   0.037   4.798  0.2535 -0.4041 -0.0295
  101POPC    CB 5206   0.767   6.281   4.914 -0.0537  0.2686  0.6006
  101POPC    OA 5207   0.883   6.199   4.903 -0.0879  0.2474  0.4111
  101POPC     P 5208   0.866   6.056   4.975 -0.1682  0.1199  0.1415
  101POPC    OB 5209   0.753   6.081   5.068 -0.4043  0.5860 -0.2678
  101POPC    OC 5210   1.000   6.008   5.013 -0.1451  0.0475 -0.0316
  101POPC    OD 5211   0.819   5.989   4.836  0.0016  0.0402  0.1222
  101POPC    CC 5212   0.907   5.890   4.784  0.3606  0.0749  0.6517
  101POPC    CD 5213   0.999   5.945   4.674  0.2185 -0.3823  0.3006
  101POPC    OE 5214   1.008   5.870   4.552  0.2878  0.3089 -0.1220
  101POPC   C1A 5215   0.933   5.908   4.449 -0.0263  0.3376  0.1132
  101POPC    OF 5216   0.891   6.023   4.448 -0.1061  0.3109  0.4464
  101POPC   C1B 5217   0.929   5.815   4.333 -0.0072  0.0187  0.3669
  101POPC   C1C 5218   1.060   5.795   4.258 -0.2447  0.1341 -0.0849
  101POPC   C1D 5219   1.031   5.694   4.148  0.7065 -0.1681 -0.0745
  101POPC   C1E 5220   1.162   5.632   4.101  0.8134 -0.1207  0.1625
  101POPC   C1F 5221   1.264   5.728   4.039  0.5967 -0.0687 -0.1144
  101POPC   C1G 5222   1.318   5.685   3.903  0.4900 -0.6121  0.0119
  101POPC   C1H 5223   1.216   5.714   3.792  0.4062  0.2097  0.2955
  101POPC   C1I 5224   1.284   5.700   3.655  0.3550  0.1853  0.2729
  101POPC   C1J 5225   1.234   5.750   3.543  0.0043 -0.1931  0.2572
  101POPC   C1K 5226   1.110   5.839   3.548  0.2732  0.2013 -0.0305
  101POPC   C1L 5227   1.035   5.803   3.419  0.5290 -0.2297 -0.0617
  101POPC   C1M 5228   0.889   5.848   3.405  0.6128  0.0239 -0.1277
  101POPC   C1N 5229   0.825   5.766   3.292  0.3373  0.2959 -0.1674
  101POPC   C1O 5230   0.874   5.802   3.152 -0.2820  0.4812 -0.3407
  101POPC   C1P 5231   0.792   5.735   3.042  0.0169 -0.2749 -0.1077
  101POPC   C1Q 5232   0.844   5.777   2.905 -0.0715 -0.0827 -0.0824
  101POPC   C1R 5233   0.788   5.687   2.794 -0.2087 -0.0855 -0.0104
  101POPC    CE 5234   1.130   5.986   4.742  0.2785  0.1077 -0.1051
  101POPC    OG 5235   1.248   5.992   4.662 -0.0805 -0.6863 -0.7043
  101POPC   C2A 5236   1.272   6.108   4.602 -0.5258 -0.2361 -0.0153
  101POPC    OH 5237   1.232   6.213   4.653  0.2320 -0.1017  0.3058
  101POPC   C2B 5238   1.374   6.100   4.495  0.0691  0.0726  0.5241
  101POPC   C2C 5239   1.322   6.102   4.351  0.2337 -0.4247  0.4568
  101POPC   C2D 5240   1.443   6.157   4.275 -0.0310 -0.5434 -0.0518
  101POPC   C2E 5241   1.451   6.131   4.124 -0.2270 -0.4714 -0.0746
  101POPC   C2F 5242   1.578   6.196   4.070 -0.1878 -0.5558 -0.0836
  101POPC   C2G 5243   1.582   6.204   3.917  0.1701  0.3876 -0.0319
  101POPC   C2H 5244   1.719   6.245   3.862  0.3130 -0.4676 -0.3255
  101POPC   C2I 5245   1.716   6.243   3.709  0.4294 -0.3577 -0.3293
  101POPC   C2J 5246   1.660   0.032   3.648  0.0534 -0.2076  0.3204
  101POPC   C2K 5247   1.639   6.337   3.500  0.0116  0.4772  0.1646
  101POPC   C2L 5248   1.537   6.226   3.478  0.3763  0.1969 -0.1220
  101POPC   C2M 5249   1.506   6.201   3.330 -0.0289  0.3150 -0.0589
  101POPC   C2N 5250   1.405   6.087   3.312  0.8466 -0.4209 -0.3726
  101POPC   C2O 5251   1.383   6.057   3.163 -0.3377 -0.3159 -0.2224
  101POPC   C2P 5252   1.301   5.930   3.140 -0.3081 -0.3342 -0.2274
  102POPC   CN1 5253   2.900   5.879   4.560  0.0244 -0.3766 -0.2047
  102POPC   CN2 5254   2.858   6.001   4.365 -0.0945 -0.3304  0.4576
  102POPC   CN3 5255   3.082   5.929   4.418  0.4509 -0.9622  0.8222
  102POPC   NTM 5256   2.956   5.982   4.472  0.3647 -0.3542  0.0388
  102POPC    CA 5257   2.979   6.105   4.550 -0.0654 -0.2661  0.0262
  102POPC    CB 5258   2.868   6.190   4.613  0.3014 -0.0813  0.4249
  102POPC    OA 5259   2.741   6.193   4.549  0.4519 -0.1565  0.1214
  102POPC     P 5260   2.617   6.163   4.648  0.1988 -0.2637 -0.2264
  102POPC    OB 5261   2.615   6.289   4.725 -0.7077 -0.1769 -0.3866
  102POPC    OC 5262   2.648   6.033   4.712  0.2059  0.2097  0.7428
  102POPC    OD 5263   2.508   6.152   4.529 -0.0619 -0.0978 -0.0021
  102POPC    CC 5264   2.459   6.274   4.473  0.1093 -0.0614 -0.0727
  102POPC    CD 5265   2.527   0.030   4.375 -0.0192  0.2243  0.1171
  102POPC    OE 5266   2.433   0.125   4.324 -0.0830  0.1957  0.1811
  102POPC   C1A 5267   2.474   0.245   4.285  0.2249 -0.0271 -0.1938
  102POPC    OF 5268   2.586   0.284   4.320  0.1948  0.1992 -0.3500
  102POPC   C1B 5269   2.399   0.311   4.176  0.1620 -0.1787 -0.2419
  102POPC   C1C 5270   2.466   0.350   4.044  0.0127 -0.5468 -0.4276
  102POPC   C1D 5271   2.369   0.394   3.934 -0.0983  0.3826  0.0251
  102POPC   C1E 5272   2.442   0.451   3.812  0.2704 -0.4537 -0.1521
  102POPC   C1F 5273   2.564   0.367   3.775  0.3308 -0.2908 -0.3246
  102POPC   C1G 5274   2.690   0.445   3.736  0.2360  0.1405  0.2178
  102POPC   C1H 5275   2.803   0.365   3.671 -0.1612 -0.0666 -0.2179
  102POPC   C1I 5276   2.871   0.252   3.749  0.1400  0.1106 -0.2247
  102POPC   C1J 5277   2.919   0.149   3.679 -0.3305  0.0231 -0.4181
  102POPC   C1K 5278   2.942   0.153   3.528  0.6572  0.3452 -0.2644
  102POPC   C1L 5279   3.028   0.042   3.469  0.2376 -0.3825  0.4775
  102POPC   C1M 5280   3.037   0.073   3.320 -0.2249  0.0044  0.5277
  102POPC   C1N 5281   3.141   6.329   3.246 -0.3753  0.2933 -0.0187
  102POPC   C1O 5282   3.219   0.051   3.130  0.0828  0.0702  0.1664
  102POPC   C1P 5283   3.273   6.276   3.046  0.0995  0.3433 -0.1993
  102POPC   C1Q 5284   3.386   6.206   3.122 -0.2223 -0.1740 -0.1943
  102POPC   C1R 5285   3.508   6.283   3.173 -0.1980 -0.0246 -0.4780
  102POPC    CE 5286   2.589   6.283   4.266  0.0359  0.4860 -0.0619
  102POPC    OG 5287   2.635   6.334   4.140  0.1553 -0.0264 -0.2294
  102POPC   C2A 5288   2.689   6.243   4.059  0.2024 -0.1827 -0.0228
  102POPC    OH 5289   2.787   6.181   4.099  0.2549 -0.1436 -0.0921
  102POPC   C2B 5290   2.670   6.291   3.921 -0.4440  0.1890  0.1906
  102POPC   C2C 5291   2.541   6.237   3.858 -0.2249  0.0143 -0.1097
  102POPC   C2D 5292   2.403   6.258   3.919 -0.3348 -0.9068 -0.0323
  102POPC   C2E 5293   2.297   6.256   3.809 -0.3370 -0.1890 -0.0457
  102POPC   C2F 5294   2.151   6.282   3.846 -0.0807  0.0886  0.7773
  102POPC   C2G 5295   2.111   0.086   3.877  0.2637  0.4081 -0.2160
  102POPC   C2H 5296   2.115   0.173   3.751 -0.3881  0.5462 -0.1464
  102POPC   C2I 5297   2.032   0.119   3.634  0.0283 -0.2572 -0.0770
  102POPC   C2J 5298   2.063   0.197   3.507  0.6254 -0.1601  0.1217
  102POPC   C2K 5299   2.017   0.117   3.385 -0.0380  0.1040  0.1943
  102POPC   C2L 5300   2.002   0.196   3.255 -0.3684 -0.1231  0.0912
  102POPC   C2M 5301   1.871   0.275   3.251 -0.4525 -0.2739 -0.1430
  102POPC   C2N 5302   1.848   0.346   3.117  0.0214 -0.7918 -0.5052
  102POPC   C2O 5303   1.962   0.420   3.048 -0.0834  0.0104  0.1724
  102POPC   C2P 5304   1.933   0.570   3.045 -0.0660  0.0039 -0.4250
  103POPC   CN1 5305   5.030   5.497   4.583 -0.2618  0.0682 -0.5808
  103POPC   CN2 5306   4.869   5.527   4.748  0.2368  0.1457  0.4385
  103POPC   CN3 5307   5.106   5.587   4.782  0.3796  0.0830 -0.6262
  103POPC   NTM 5308   5.010   5.489   4.729  0.1394  0.2572 -0.5151
  103POPC    CA 5309   5.044   5.356   4.780  0.4325  0.3960 -0.3429
  103POPC    CB 5310   4.956   5.236   4.742  0.4650  0.3970 -0.4234
  103POPC    OA 5311   4.940   5.204   4.604  0.9340 -0.3830 -0.3017
  103POPC     P 5312   4.874   5.059   4.584 -0.2268  0.0739  0.1577
  103POPC    OB 5313   4.910   4.982   4.705 -0.5418  0.2323  0.3540
  103POPC    OC 5314   4.913   5.006   4.451 -0.3802  0.1250  0.0911
  103POPC    OD 5315   4.716   5.090   4.582 -0.2543 -0.0746 -0.1662
  103POPC    CC 5316   4.668   5.138   4.457 -0.2303  0.1538 -0.0874
  103POPC    CD 5317   4.658   5.288   4.428  0.4726  0.2383  0.1131
  103POPC    OE 5318   4.536   5.349   4.468  0.2442  0.1051 -0.3758
  103POPC   C1A 5319   4.524   5.394   4.593 -0.8774 -0.8212 -0.1323
  103POPC    OF 5320   4.614   5.368   4.673 -0.4833 -0.1978 -0.3640
  103POPC   C1B 5321   4.403   5.471   4.629 -0.5073 -0.4512  0.3325
  103POPC   C1C 5322   4.437   5.599   4.705  0.2963 -0.3691 -0.1436
  103POPC   C1D 5323   4.511   5.708   4.628 -0.3644  0.1913 -0.0010
  103POPC   C1E 5324   4.542   5.835   4.707 -0.4855  0.2669 -0.0742
  103POPC   C1F 5325   4.574   5.940   4.601 -0.3594 -0.1931 -0.4925
  103POPC   C1G 5326   4.511   6.078   4.627  0.6800  0.1310  0.3696
  103POPC   C1H 5327   4.505   6.176   4.510 -0.2116  0.0553  0.3496
  103POPC   C1I 5328   4.462   6.109   4.379  0.2092  0.1679  0.1510
  103POPC   C1J 5329   4.495   6.141   4.254  0.5442 -0.0334  0.1889
  103POPC   C1K 5330   4.595   6.256   4.240 -0.0341  0.3848 -0.5281
  103POPC   C1L 5331   4.734   6.209   4.195  0.1135 -0.3718  0.6814
  103POPC   C1M 5332   4.715   6.173   4.048  0.6183  0.4145  0.4159
  103POPC   C1N 5333   4.831   6.089   3.994  0.2421  0.2838 -0.2085
  103POPC   C1O 5334   4.821   6.040   3.850 -0.4424 -0.0063 -0.0635
  103POPC   C1P 5335   4.898   5.913   3.814 -0.6464 -0.1211 -0.0981
  103POPC   C1Q 5336   4.871   5.889   3.666 -0.5347  0.4998 -0.2220
  103POPC   C1R 5337   4.881   5.738   3.640 -0.2745  0.4408  0.2156
  103POPC    CE 5338   4.715   5.315   4.288  0.2003  0.1995 -0.0047
  103POPC    OG 5339   4.669   5.222   4.190  0.3093  0.0868  0.0517
  103POPC   C2A 5340   4.678   5.256   4.062 -0.3133 -0.1419 -0.0557
  103POPC    OH 5341   4.758   5.343   4.029 -0.5762  0.2577  0.3619
  103POPC   C2B 5342   4.607   5.160   3.973 -0.5603  0.0333 -0.0478
  103POPC   C2C 5343   4.570   5.230   3.842 -0.3894  0.5177  0.1599
  103POPC   C2D 5344   4.465   5.140   3.778  0.8491 -0.8692  0.0357
  103POPC   C2E 5345   4.427   5.188   3.638 -0.1901  0.2286  0.6704
  103POPC   C2F 5346   4.332   5.101   3.556  0.4895  0.1215 -0.0194
  103POPC   C2G 5347   4.328   5.153   3.412  0.6919 -0.1790 -0.1349
  103POPC   C2H 5348   4.220   5.064   3.351  0.4139  0.3653 -0.4377
  103POPC   C2I 5349   4.274   4.926   3.316 -0.4528 -0.0622 -0.1366
  103POPC   C2J 5350   4.171   4.814   3.330  0.0114 -0.3657  0.9644
  103POPC   C2K 5351   4.204   4.673   3.281  0.2599 -0.0168  0.1115
  103POPC   C2L 5352   4.086   4.581   3.250  0.1912  0.0967  0.0305
  103POPC   C2M 5353   3.985   4.537   3.356 -0.5393  1.0687 -0.2534
  103POPC   C2N 5354   3.880   4.435   3.314 -0.1895  0.5791  0.0500
  103POPC   C2O 5355   3.795   4.390   3.433 -0.2361 -0.0054 -0.2001
  103POPC   C2P 5356   3.683   4.487   3.467 -0.4773 -0.1827 -0.4827
  104POPC   CN1 5357   4.035   1.474   4.619  0.3652  0.6585 -0.1743
  104POPC   CN2 5358   4.231   1.354   4.667  0.0300  0.1933  0.6694
  104POPC   CN3 5359   4.089   1.438   4.846 -0.4635  0.5170 -0.0386
  104POPC   NTM 5360   4.147   1.465   4.714  0.0566  0.4253  0.1685
  104POPC    CA 5361   4.211   1.598   4.705  0.1941  0.3173 -0.5191
  104POPC    CB 5362   4.337   1.630   4.786  0.4728 -0.1691 -0.7529
  104POPC    OA 5363   4.443   1.537   4.764  0.3272 -0.5961  0.2951
  104POPC     P 5364   4.574   1.629   4.750 -0.2622  0.1770 -0.2632
  104POPC    OB 5365   4.632   1.618   4.886  0.3136 -0.1130 -0.5267
  104POPC    OC 5366   4.538   1.757   4.686 -0.5327  0.2426  0.0215
  104POPC    OD 5367   4.651   1.531   4.647 -0.3911  0.2069 -0.3886
  104POPC    CC 5368   4.633   1.575   4.512  0.1372  0.9442 -0.2285
  104POPC    CD 5369   4.517   1.523   4.426  0.2468  0.2437  0.0378
  104POPC    OE 5370   4.530   1.383   4.404  0.0050  0.2258  0.0100
  104POPC   C1A 5371   4.424   1.319   4.353  0.1897  0.2879 -0.4602
  104POPC    OF 5372   4.310   1.358   4.375 -0.0607 -0.2683 -0.7608
  104POPC   C1B 5373   4.454   1.180   4.311  0.0704  0.0449  0.2455
  104POPC   C1C 5374   4.378   1.138   4.185 -0.0929  0.0641  0.3374
  104POPC   C1D 5375   4.395   1.242   4.074  0.0094  0.3173  0.5905
  104POPC   C1E 5376   4.535   1.284   4.027 -0.1711  0.0136 -0.2292
  104POPC   C1F 5377   4.602   1.170   3.950  0.0718 -0.1415  0.2059
  104POPC   C1G 5378   4.691   1.220   3.837 -0.6462  0.3493 -0.1545
  104POPC   C1H 5379   4.696   1.132   3.712 -0.6493  0.3233 -0.1364
  104POPC   C1I 5380   4.790   1.196   3.610 -0.0620 -0.0091  0.1947
  104POPC   C1J 5381   4.853   1.108   3.533  0.1780  0.0102  0.3678
  104POPC   C1K 5382   4.826   0.959   3.552  0.5830 -0.0863  0.2131
  104POPC   C1L 5383   4.946   0.869   3.524  0.3169 -0.4198  0.1376
  104POPC   C1M 5384   4.926   0.726   3.575  0.1554 -0.4983 -0.1402
  104POPC   C1N 5385   4.845   0.644   3.475 -0.3841  0.2346 -0.3118
  104POPC   C1O 5386   4.855   0.499   3.522  0.1201  0.2102 -0.4933
  104POPC   C1P 5387   4.823   0.415   3.397 -0.1250 -0.0505 -0.2576
  104POPC   C1Q 5388   4.938   0.317   3.376 -0.1705 -0.0356 -0.5796
  104POPC   C1R 5389   5.070   0.386   3.340 -0.0736 -0.0779 -0.3058
  104POPC    CE 5390   4.523   1.609   4.300 -0.1853  0.3801  0.1060
  104POPC    OG 5391   4.649   1.612   4.232  0.1105  0.5588  0.6564
  104POPC   C2A 5392   4.664   1.684   4.122  0.2307 -0.0352  0.2812
  104POPC    OH 5393   4.565   1.742   4.077 -0.0597  0.0894  1.0666
  104POPC   C2B 5394   4.798   1.694   4.061  0.1736 -0.0122  0.1592
  104POPC   C2C 5395   4.780   1.626   3.925  0.5665  0.2211 -0.0136
  104POPC   C2D 5396   4.883   1.651   3.815  0.2386  0.4171 -0.2769
  104POPC   C2E 5397   4.862   1.553   3.699 -0.0299  0.2101 -0.0563
  104POPC   C2F 5398   4.951   1.593   3.580 -0.1120 -0.3886 -0.3206
  104POPC   C2G 5399   4.891   1.524   3.457 -0.2398 -0.3084 -0.3037
  104POPC   C2H 5400   4.977   1.564   3.337  0.0282  0.1692  0.0400
  104POPC   C2I 5401   4.915   1.520   3.204 -0.1418 -0.3667  0.2927
  104POPC   C2J 5402   4.822   1.624   3.141  0.1077 -0.2961  0.0351
  104POPC   C2K 5403   4.771   1.553   3.016 -0.3547  0.3803 -0.1626
  104POPC   C2L 5404   4.644   1.615   2.955 -0.8692 -0.1419  0.3644
  104POPC   C2M 5405   4.611   1.535   2.829 -0.5859 -0.3572  0.4252
  104POPC   C2N 5406   4.525   1.612   2.729 -0.2621 -0.3837  0.1225
  104POPC   C2O 5407   4.483   1.517   2.617  0.2650  0.0126 -0.4164
  104POPC   C2P 5408   4.401   1.572   2.499 -0.3689  0.1050  0.0628
  105POPC   CN1 5409   4.050   0.671   4.336  0.6385 -0.2239  0.2912
  105POPC   CN2 5410   4.086   0.612   4.567 -0.2498  0.1445 -0.0928
  105POPC   CN3 5411   3.889   0.728   4.504 -0.5433 -0.4311  0.1029
  105POPC   NTM 5412   4.033   0.714   4.475 -0.4979  0.1442  0.0504
  105POPC    CA 5413   4.101   0.844   4.482 -0.0868 -0.0906  0.4940
  105POPC    CB 5414   4.160   0.909   4.608  0.6136 -0.0166  0.1310
  105POPC    OA 5415   4.259   0.830   4.675  0.2682 -0.3889  0.2104
  105POPC     P 5416   4.390   0.921   4.701  0.1635 -0.1588 -0.0492
  105POPC    OB 5417   4.483   0.841   4.785  0.5102  0.0614 -0.2219
  105POPC    OC 5418   4.353   1.058   4.741  0.4377 -0.1097  0.0376
  105POPC    OD 5419   4.449   0.923   4.551 -0.0221 -0.1054 -0.1210
  105POPC    CC 5420   4.526   0.806   4.525  0.5159  0.2264 -0.0309
  105POPC    CD 5421   4.479   0.716   4.410  0.0973  0.0319  0.2894
  105POPC    OE 5422   4.495   0.576   4.431  0.2089 -0.0432 -0.2768
  105POPC   C1A 5423   4.406   0.496   4.372  0.0092  0.0953 -0.1654
  105POPC    OF 5424   4.292   0.542   4.369 -0.3687 -0.7646  0.6064
  105POPC   C1B 5425   4.445   0.354   4.367 -0.4036 -0.0130 -0.4196
  105POPC   C1C 5426   4.554   0.317   4.266  0.2418 -0.5407  0.4534
  105POPC   C1D 5427   4.523   0.316   4.116 -0.0786  0.9541  0.4957
  105POPC   C1E 5428   4.638   0.284   4.020 -0.2339  0.5667  0.4353
  105POPC   C1F 5429   4.592   0.305   3.876 -0.0567 -0.3288  0.2459
  105POPC   C1G 5430   4.589   0.456   3.855 -0.0569 -0.3293  0.2427
  105POPC   C1H 5431   4.515   0.500   3.729 -0.3721 -0.2742  0.4440
  105POPC   C1I 5432   4.362   0.501   3.736 -0.3841 -0.1059  0.1885
  105POPC   C1J 5433   4.274   0.420   3.678 -0.2392 -0.2755  0.2020
  105POPC   C1K 5434   4.308   0.301   3.588 -0.1440 -0.2273  0.1746
  105POPC   C1L 5435   4.216   0.274   3.469 -0.2404 -0.1370  0.2285
  105POPC   C1M 5436   4.097   0.189   3.513 -0.6496  0.3688  0.1173
  105POPC   C1N 5437   4.001   0.133   3.408 -0.1460 -0.1723 -0.0635
  105POPC   C1O 5438   4.076   0.062   3.295  0.1459 -0.4820  0.3241
  105POPC   C1P 5439   3.962   6.336   3.218 -0.1829  0.1851  0.2341
  105POPC   C1Q 5440   4.001   6.283   3.080 -0.3224  0.3803  0.1194
  105POPC   C1R 5441   3.881   6.251   2.991 -0.1003  0.4658 -0.2144
  105POPC    CE 5442   4.541   0.785   4.288  0.1177  0.3079  0.4532
  105POPC    OG 5443   4.676   0.754   4.250 -0.1330  0.1207 -0.2970
  105POPC   C2A 5444   4.720   0.797   4.132  0.3689  0.0191 -0.1476
  105POPC    OH 5445   4.646   0.854   4.051  0.2449 -0.0645 -0.0940
  105POPC   C2B 5446   4.862   0.765   4.105  0.3729 -0.4686  0.4242
  105POPC   C2C 5447   4.934   0.872   4.022 -0.3500  0.0990  0.5192
  105POPC   C2D 5448   5.086   0.857   4.009 -0.4332 -0.5211  0.2403
  105POPC   C2E 5449   5.123   0.731   3.931 -0.1628 -0.1020 -0.3135
  105POPC   C2F 5450   5.274   0.712   3.910  0.0229  0.1469  0.7426
  105POPC   C2G 5451   5.302   0.575   3.848 -0.1449  0.1800  0.5900
  105POPC   C2H 5452   5.295   0.569   3.696 -0.1321  0.1160  0.5915
  105POPC   C2I 5453   5.401   0.661   3.634 -0.1300 -0.4138 -0.2089
  105POPC   C2J 5454   5.383   0.702   3.488 -0.0843  0.0101 -0.0978
  105POPC   C2K 5455   5.433   0.590   3.396 -0.1348 -0.0012 -0.1114
  105POPC   C2L 5456   5.410   0.614   3.247 -0.2891  0.1326 -0.0661
  105POPC   C2M 5457   5.270   0.652   3.199 -0.3420 -0.2638 -0.2320
  105POPC   C2N 5458   5.252   0.610   3.053  0.1997  0.2885 -0.4608
  105POPC   C2O 5459   5.105   0.607   3.009  0.2566 -0.0966 -0.6216
  105POPC   C2P 5460   5.095   0.605   2.856  0.1107  0.3673 -0.6189
  106POPC   CN1 5461   0.315   1.959   5.034  0.2423  0.4570 -0.1183
  106POPC   CN2 5462   0.349   2.101   4.846 -0.9310 -0.5183  0.0609
  106POPC   CN3 5463   0.531   2.016   4.987 -0.0614 -0.3578  0.9237
  106POPC   NTM 5464   0.395   2.070   4.982  0.2779  0.4366 -0.1076
  106POPC    CA 5465   0.381   2.189   5.069  0.7695  0.4745 -0.0809
  106POPC    CB 5466   0.439   2.327   5.036  0.0093  0.7021 -0.4824
  106POPC    OA 5467   0.580   2.324   5.014  0.1334  0.0350  0.3634
  106POPC     P 5468   0.612   2.449   4.918 -0.1436 -0.0748  0.1257
  106POPC    OB 5469   0.760   2.463   4.923 -0.1890  0.6208 -0.4299
  106POPC    OC 5470   0.518   2.560   4.941 -0.0293  0.0444  0.0160
  106POPC    OD 5471   0.555   2.375   4.787 -0.5689  0.4236  0.0262
  106POPC    CC 5472   0.670   2.353   4.705 -0.6491  0.3642 -0.0701
  106POPC    CD 5473   0.664   2.242   4.600  0.1296  0.1765  0.0763
  106POPC    OE 5474   0.779   2.221   4.517  0.1053  0.3092  0.0077
  106POPC   C1A 5475   0.865   2.123   4.545 -0.1214  0.0978 -0.0310
  106POPC    OF 5476   0.868   2.091   4.663  0.1378 -0.2920 -0.1424
  106POPC   C1B 5477   0.974   2.104   4.446 -0.1009  0.5870 -0.1026
  106POPC   C1C 5478   1.073   1.990   4.469 -0.1941  0.4217 -0.5053
  106POPC   C1D 5479   1.017   1.854   4.430  0.1101  0.1289  0.0604
  106POPC   C1E 5480   0.978   1.845   4.282 -0.0027  0.0317  0.0960
  106POPC   C1F 5481   0.912   1.719   4.226  0.3330 -0.0260 -0.1727
  106POPC   C1G 5482   0.993   1.592   4.253  0.3973  0.1309  0.3790
  106POPC   C1H 5483   0.928   1.471   4.186  0.3439 -0.0085  0.6761
  106POPC   C1I 5484   0.986   1.337   4.232 -0.1660 -0.6541 -0.5062
  106POPC   C1J 5485   1.007   1.240   4.143 -0.4689 -0.8501 -0.3617
  106POPC   C1K 5486   0.980   1.286   4.000  0.5950 -0.1944 -0.3634
  106POPC   C1L 5487   1.041   1.218   3.877 -0.1777 -0.0531 -0.8320
  106POPC   C1M 5488   0.955   1.099   3.833 -0.1245 -0.4372  0.0661
  106POPC   C1N 5489   1.014   1.068   3.695  0.2898 -0.1794  0.1846
  106POPC   C1O 5490   0.927   0.975   3.610  0.0856 -0.1812  0.3950
  106POPC   C1P 5491   0.981   0.930   3.475  0.4572 -0.2024  0.5497
  106POPC   C1Q 5492   0.877   0.858   3.390  0.3758  0.0991  0.3912
  106POPC   C1R 5493   0.940   0.796   3.265 -0.4267 -0.2083  0.1314
  106POPC    CE 5494   0.539   2.262   4.514  0.8541 -0.1731 -1.0778
  106POPC    OG 5495   0.509   2.169   4.409 -0.2877 -0.0645 -0.8569
  106POPC   C2A 5496   0.427   2.067   4.433  0.1445 -0.1234  0.4280
  106POPC    OH 5497   0.386   2.049   4.548  0.4623  0.0323  0.5699
  106POPC   C2B 5498   0.380   1.989   4.317  0.0514  0.0589  0.3418
  106POPC   C2C 5499   0.446   1.855   4.283  0.2649  0.4093 -0.6448
  106POPC   C2D 5500   0.412   1.833   4.135 -0.0886  0.3486 -0.5569
  106POPC   C2E 5501   0.507   1.729   4.075  0.1481 -0.0899  0.5640
  106POPC   C2F 5502   0.490   1.586   4.128  0.2519  0.0023  0.8495
  106POPC   C2G 5503   0.570   1.478   4.056 -0.3980  0.1418 -0.1029
  106POPC   C2H 5504   0.518   1.462   3.913 -0.8106 -0.6439  0.1286
  106POPC   C2I 5505   0.587   1.343   3.845  0.0111  0.0315 -0.2486
  106POPC   C2J 5506   0.538   1.333   3.700 -0.3643  0.1045 -0.1286
  106POPC   C2K 5507   0.597   1.219   3.618  0.0859  0.1373  0.1475
  106POPC   C2L 5508   0.568   1.235   3.469  0.6034  0.1262  0.0431
  106POPC   C2M 5509   0.451   1.153   3.416  0.5764  0.2729 -0.1277
  106POPC   C2N 5510   0.411   1.192   3.274  0.3232 -0.0690 -0.1513
  106POPC   C2O 5511   0.331   1.084   3.199 -0.3747  0.0430  0.4173
  106POPC   C2P 5512   0.425   1.025   3.093  0.4537  0.0935  1.1098
  107POPC   CN1 5513   0.252   2.594   4.700 -0.1778 -0.1902 -0.2870
  107POPC   CN2 5514   0.102   2.793   4.688  0.4298 -0.3449  0.0739
  107POPC   CN3 5515   0.296   2.795   4.829  0.5746 -0.4099 -0.1775
  107POPC   NTM 5516   0.193   2.709   4.769  0.2218 -0.3356  0.3185
  107POPC    CA 5517   0.117   2.653   4.881 -0.2235  0.0282  0.2042
  107POPC    CB 5518   6.295   2.576   4.883 -0.0161 -0.3242  0.4702
  107POPC    OA 5519   0.008   2.456   4.810 -0.6177  0.0014 -0.2663
  107POPC     P 5520   0.015   2.323   4.901 -0.1890  0.1712 -0.0493
  107POPC    OB 5521   6.184   2.301   4.939 -0.1187 -0.9527 -0.4177
  107POPC    OC 5522   0.123   2.332   5.002 -0.2863  0.7072  0.0113
  107POPC    OD 5523   0.067   2.228   4.782 -0.1738 -0.0062  0.0981
  107POPC    CC 5524   6.269   2.172   4.707 -0.0891  0.2095 -0.1884
  107POPC    CD 5525   6.252   2.242   4.572 -0.1444  0.1074 -0.2341
  107POPC    OE 5526   6.129   2.205   4.509 -0.1534 -0.7234  0.2521
  107POPC   C1A 5527   6.043   2.301   4.474  0.5308 -0.2265 -0.0936
  107POPC    OF 5528   6.031   2.400   4.547 -0.6694 -0.3056 -0.1673
  107POPC   C1B 5529   5.954   2.251   4.367 -0.2366  0.2155  0.3305
  107POPC   C1C 5530   5.922   2.348   4.253 -0.3517 -0.0341  0.1519
  107POPC   C1D 5531   6.050   2.388   4.179 -0.2481 -0.0150  0.3413
  107POPC   C1E 5532   6.008   2.502   4.087 -0.2462 -0.1250  0.2035
  107POPC   C1F 5533   6.112   2.548   3.984  0.0405 -0.4570  0.3428
  107POPC   C1G 5534   6.030   2.630   3.884  0.3867 -0.4625  0.0527
  107POPC   C1H 5535   6.094   2.654   3.747  0.0284 -0.1027 -0.0546
  107POPC   C1I 5536   5.985   2.708   3.655  0.0426 -0.0828 -0.0597
  107POPC   C1J 5537   6.009   2.712   3.524 -0.5646  0.0464 -0.1711
  107POPC   C1K 5538   6.124   2.676   3.431 -0.0387 -0.1336  0.5381
  107POPC   C1L 5539   6.210   2.792   3.379 -0.3877 -0.2672 -0.3640
  107POPC   C1M 5540   0.025   2.740   3.307  0.0087  0.6918 -0.3842
  107POPC   C1N 5541   6.292   2.645   3.195  0.2345 -0.1627  0.2364
  107POPC   C1O 5542   0.111   2.635   3.112 -0.0745 -0.1083 -0.2567
  107POPC   C1P 5543   0.073   2.566   2.981 -0.0486 -0.2306 -0.2007
  107POPC   C1Q 5544   0.200   2.515   2.911  0.2207  0.3177 -0.1212
  107POPC   C1R 5545   0.151   2.440   2.787 -0.0016 -0.0671  0.1971
  107POPC    CE 5546   0.077   2.220   4.504  0.2665  0.2561  0.5215
  107POPC    OG 5547   0.103   2.272   4.373  0.0038 -0.1642  0.3001
  107POPC   C2A 5548   0.192   2.369   4.358 -0.3083  0.0833  0.0435
  107POPC    OH 5549   0.252   2.409   4.457 -0.0761  0.4835 -0.2592
  107POPC   C2B 5550   0.183   2.425   4.221 -0.0478 -0.0812 -0.0411
  107POPC   C2C 5551   0.269   2.350   4.119  0.0237  0.1563 -0.1556
  107POPC   C2D 5552   0.413   2.400   4.133  0.2022 -0.3317 -0.2462
  107POPC   C2E 5553   0.511   2.307   4.061  0.2469 -0.1467 -0.4223
  107POPC   C2F 5554   0.650   2.368   4.083  0.1181 -0.1259  0.3654
  107POPC   C2G 5555   0.754   2.295   3.998  0.1466  0.5384 -0.1824
  107POPC   C2H 5556   0.774   2.152   4.048  0.1784  0.4440 -0.4663
  107POPC   C2I 5557   0.837   2.079   3.929 -0.1552  0.0764 -0.4197
  107POPC   C2J 5558   0.816   1.928   3.937  0.4496  0.0220  0.3344
  107POPC   C2K 5559   0.848   1.876   3.796  0.0156  0.4703  0.0656
  107POPC   C2L 5560   0.801   1.733   3.768  0.9354  0.0608  0.5464
  107POPC   C2M 5561   0.843   1.692   3.627  0.2249  0.1761  0.2949
  107POPC   C2N 5562   0.810   1.776   3.504 -0.1074  0.1630  0.3737
  107POPC   C2O 5563   0.838   1.686   3.383  0.6849 -0.1284  0.7696
  107POPC   C2P 5564   0.923   1.758   3.277 -0.2022 -0.1212  0.0583
  108POPC   CN1 5565   4.377   5.057   4.727 -0.2009 -0.1709  0.3976
  108POPC   CN2 5566   4.190   5.125   4.597  0.9664 -0.0349 -0.0399
  108POPC   CN3 5567   4.174   5.105   4.837 -0.0007  0.4945 -0.1378
  108POPC   NTM 5568   4.231   5.047   4.714 -0.1711 -0.3297  0.1681
  108POPC    CA 5569   4.191   4.906   4.712  0.1845 -0.4281 -0.0771
  108POPC    CB 5570   4.055   4.853   4.666 -0.0405  0.1528 -0.0916
  108POPC    OA 5571   3.938   4.907   4.728 -0.0413 -0.3893  0.3967
  108POPC     P 5572   3.794   4.885   4.658  0.0182  0.0237  0.1399
  108POPC    OB 5573   3.725   4.780   4.736 -0.6187  0.4627  0.1726
  108POPC    OC 5574   3.842   4.860   4.520 -0.6481  0.2617 -0.1379
  108POPC    OD 5575   3.747   5.039   4.673 -0.3771 -0.0590 -0.2478
  108POPC    CC 5576   3.808   5.124   4.575 -0.2307  0.1956  0.0634
  108POPC    CD 5577   3.769   5.272   4.579  0.1162  0.2997 -0.3380
  108POPC    OE 5578   3.765   5.333   4.708 -0.1000 -0.5865  0.0860
  108POPC   C1A 5579   3.877   5.371   4.769 -0.4137  0.2737  0.1421
  108POPC    OF 5580   3.986   5.329   4.728 -0.5987  0.3272 -0.4167
  108POPC   C1B 5581   3.852   5.468   4.878  0.1732  0.5146  0.0677
  108POPC   C1C 5582   3.917   5.604   4.852 -0.5194  0.7141 -0.6377
  108POPC   C1D 5583   3.896   5.695   4.973 -0.2605  0.2016 -0.2059
  108POPC   C1E 5584   3.921   5.840   4.934  0.5939  0.3017  0.6636
  108POPC   C1F 5585   3.809   5.881   4.838  1.1715  0.1349 -0.0866
  108POPC   C1G 5586   3.834   6.024   4.788 -0.4156  0.5303  0.1954
  108POPC   C1H 5587   3.695   6.083   4.762 -0.4108  0.2294 -0.5283
  108POPC   C1I 5588   3.694   6.233   4.734 -0.7256  0.2765 -0.2679
  108POPC   C1J 5589   3.644   6.267   4.616 -0.5921  0.1996 -0.3468
  108POPC   C1K 5590   3.601   6.160   4.516 -0.1193 -0.4715  0.1631
  108POPC   C1L 5591   3.639   6.212   4.378  0.0642 -1.1175 -0.0353
  108POPC   C1M 5592   3.595   6.114   4.269 -0.0256 -0.0331 -0.9971
  108POPC   C1N 5593   3.681   6.166   4.154  0.1739  0.2667 -0.7130
  108POPC   C1O 5594   3.670   6.091   4.021  0.1391 -0.3261 -0.3781
  108POPC   C1P 5595   3.755   6.134   3.901  0.7956 -0.3301  0.0795
  108POPC   C1Q 5596   3.728   6.278   3.856 -0.4899 -0.7045 -0.3943
  108POPC   C1R 5597   3.843   6.314   3.762 -0.1598 -0.4286  0.1116
  108POPC    CE 5598   3.638   5.287   4.503 -0.1731 -0.6040 -0.0372
  108POPC    OG 5599   3.638   5.230   4.372  0.2901 -0.1894 -0.2229
  108POPC   C2A 5600   3.516   5.239   4.318  0.1742  0.0934  0.0814
  108POPC    OH 5601   3.413   5.247   4.383 -0.0717 -0.0370 -0.2887
  108POPC   C2B 5602   3.529   5.214   4.172 -0.0297  0.2346  0.0393
  108POPC   C2C 5603   3.452   5.316   4.088 -0.3285 -0.0008  0.0282
  108POPC   C2D 5604   3.470   5.277   3.941  0.4354 -0.2753  0.1887
  108POPC   C2E 5605   3.406   5.143   3.906 -0.7413  0.3658 -0.1878
  108POPC   C2F 5606   3.395   5.116   3.756  0.3817  0.2980 -0.2647
  108POPC   C2G 5607   3.306   5.216   3.682 -0.0831 -0.1329 -0.2917
  108POPC   C2H 5608   3.287   5.164   3.539 -0.4550 -0.2207 -0.2117
  108POPC   C2I 5609   3.167   5.237   3.478 -0.3770 -0.0172 -0.1216
  108POPC   C2J 5610   3.170   5.228   3.325  0.1110 -0.2018 -0.1033
  108POPC   C2K 5611   3.101   5.104   3.269 -0.1320 -0.0467 -0.1478
  108POPC   C2L 5612   3.138   5.079   3.122 -0.2139 -0.5625 -0.0830
  108POPC   C2M 5613   3.065   4.962   3.057 -0.0871 -0.3972 -0.5283
  108POPC   C2N 5614   2.915   4.994   3.047 -0.0637  0.0773  0.4888
  108POPC   C2O 5615   2.823   4.873   3.039 -0.0008  0.0503  0.1504
  108POPC   C2P 5616   2.841   4.798   2.907  0.7001  0.0717  0.2308
  109POPC   CN1 5617   2.085   4.111   5.064  0.6194  0.0167 -0.6658
  109POPC   CN2 5618   2.108   3.948   4.886  0.0819 -0.0669 -0.3690
  109POPC   CN3 5619   1.899   4.040   4.932  0.2867  0.8379  0.6225
  109POPC   NTM 5620   2.024   3.996   4.996  0.3395 -0.1477 -0.1369
  109POPC    CA 5621   1.994   3.889   5.093  0.0632 -0.2954 -0.3806
  109POPC    CB 5622   1.963   3.744   5.057 -0.1778 -0.2593 -0.3191
  109POPC    OA 5623   1.864   3.727   4.955 -0.2705  0.1719 -0.3041
  109POPC     P 5624   1.738   3.644   5.014 -0.0320  0.2408  0.3177
  109POPC    OB 5625   1.652   3.757   5.057 -0.1685  0.0424  0.5634
  109POPC    OC 5626   1.799   3.539   5.098 -0.1420 -0.1494 -0.0873
  109POPC    OD 5627   1.679   3.576   4.881  0.1291  0.1739  0.2798
  109POPC    CC 5628   1.618   3.670   4.791  0.0211 -0.0007  0.1681
  109POPC    CD 5629   1.558   3.601   4.669 -0.2701 -0.0270  0.3253
  109POPC    OE 5630   1.634   3.513   4.586 -0.5265 -0.3828  0.4651
  109POPC   C1A 5631   1.555   3.424   4.528 -0.6270 -0.0183  0.0350
  109POPC    OF 5632   1.434   3.419   4.553 -0.5991 -0.7244  0.0576
  109POPC   C1B 5633   1.623   3.332   4.433  0.0439  0.5618 -0.0535
  109POPC   C1C 5634   1.623   3.378   4.287 -0.8626 -0.3957 -0.3696
  109POPC   C1D 5635   1.681   3.268   4.198  0.2319 -0.1317 -0.0022
  109POPC   C1E 5636   1.652   3.317   4.056  0.0164 -0.0066  0.0835
  109POPC   C1F 5637   1.675   3.205   3.953  0.1247  0.0268  0.0717
  109POPC   C1G 5638   1.559   3.107   3.943  0.1535  0.0666 -0.6671
  109POPC   C1H 5639   1.464   3.167   3.839  0.0571  0.7385 -0.1907
  109POPC   C1I 5640   1.338   3.085   3.807  0.4483 -0.0131  0.1768
  109POPC   C1J 5641   1.292   3.064   3.684  0.8926  0.1127 -0.0131
  109POPC   C1K 5642   1.359   3.118   3.558 -0.0406  0.4313 -0.3758
  109POPC   C1L 5643   1.321   3.034   3.435  0.2228  0.3574 -0.4072
  109POPC   C1M 5644   1.361   3.090   3.299  0.1706 -0.3403 -0.7115
  109POPC   C1N 5645   1.510   3.123   3.294  0.1954 -0.3663 -0.1562
  109POPC   C1O 5646   1.554   3.232   3.196  0.5835  0.0985  0.5291
  109POPC   C1P 5647   1.506   3.368   3.247 -0.5336  0.1001 -0.4751
  109POPC   C1Q 5648   1.480   3.478   3.144 -0.3954  0.5171 -0.0698
  109POPC   C1R 5649   1.608   3.495   3.061 -0.1420 -0.7739  0.0360
  109POPC    CE 5650   1.492   3.716   4.593  0.5589  0.2790  0.0577
  109POPC    OG 5651   1.570   3.832   4.565  1.1570 -0.1563 -0.0964
  109POPC   C2A 5652   1.556   3.899   4.450  0.9065  0.3287  0.2153
  109POPC    OH 5653   1.452   3.900   4.385  0.6561 -0.3153  0.5874
  109POPC   C2B 5654   1.655   4.008   4.438  0.6631  0.5702  0.3748
  109POPC   C2C 5655   1.680   4.039   4.291  0.6409  0.0716  0.2633
  109POPC   C2D 5656   1.753   4.173   4.276  0.5953  0.0600 -0.0854
  109POPC   C2E 5657   1.779   4.230   4.137  0.0456  0.1735 -0.1462
  109POPC   C2F 5658   1.657   4.283   4.062 -0.3829 -0.3069  0.2076
  109POPC   C2G 5659   1.677   4.287   3.911 -0.0468  0.3584  0.2620
  109POPC   C2H 5660   1.549   4.290   3.826 -0.0045 -0.2701  0.1699
  109POPC   C2I 5661   1.601   4.291   3.682 -0.3032  0.3413  0.0652
  109POPC   C2J 5662   1.487   4.334   3.590 -0.0635  0.2583 -0.2737
  109POPC   C2K 5663   1.531   4.313   3.445  0.3343 -0.5453 -0.0436
  109POPC   C2L 5664   1.407   4.261   3.372 -0.2610  0.7667  0.0052
  109POPC   C2M 5665   1.436   4.223   3.227  1.1177  0.3162  0.3807
  109POPC   C2N 5666   1.538   4.110   3.216 -0.1357 -0.7729 -0.3743
  109POPC   C2O 5667   1.489   3.982   3.284  0.2904 -0.4107  0.6286
  109POPC   C2P 5668   1.593   3.875   3.251  0.1607 -0.3629  0.0662
  110POPC   CN1 5669   0.475   5.733   4.837  0.0954  0.2958 -0.1023
  110POPC   CN2 5670   0.308   5.865   4.747 -0.2081  0.9398 -0.5765
  110POPC   CN3 5671   0.542   5.919   4.692  0.6499 -0.0037  0.2653
  110POPC   NTM 5672   0.447   5.871   4.794 -0.2105  0.1215 -0.4649
  110POPC    CA 5673   0.458   5.961   4.909  0.2161 -0.5171  0.0028
  110POPC    CB 5674   0.406   6.105   4.905 -0.3600 -0.7307 -0.2684
  110POPC    OA 5675   0.464   6.195   4.811 -0.6838 -0.1852  0.0496
  110POPC     P 5676   0.388   6.337   4.821  0.0447  0.2049  0.1436
  110POPC    OB 5677   0.468   0.076   4.917  0.2709 -0.1151  0.2178
  110POPC    OC 5678   0.243   6.311   4.837 -0.0510  0.5398 -0.1593
  110POPC    OD 5679   0.425   0.036   4.669  0.1775  0.5911  0.2737
  110POPC    CC 5680   0.314   0.031   4.579  0.6384 -0.1516 -0.2724
  110POPC    CD 5681   0.278   6.239   4.511  0.1608 -0.1083 -0.1116
  110POPC    OE 5682   0.368   6.191   4.410  0.1679 -0.3821  0.0232
  110POPC   C1A 5683   0.372   6.061   4.382  0.1728 -0.3791  0.0095
  110POPC    OF 5684   0.297   5.989   4.447 -0.1019  0.3681  0.5309
  110POPC   C1B 5685   0.458   6.025   4.267 -0.0869 -1.2478  0.0815
  110POPC   C1C 5686   0.371   6.034   4.141  0.0247 -0.1381  0.0702
  110POPC   C1D 5687   0.447   6.027   4.009 -0.0323 -0.0298  0.0324
  110POPC   C1E 5688   0.366   6.070   3.886 -0.5551 -0.1946  0.3151
  110POPC   C1F 5689   0.444   6.056   3.755  0.3377  0.7582  0.7296
  110POPC   C1G 5690   0.344   6.079   3.641  0.6706 -0.5529  0.1553
  110POPC   C1H 5691   0.416   6.081   3.505  0.3186  0.0414 -0.0244
  110POPC   C1I 5692   0.309   6.074   3.396  0.0567  0.2376  0.2150
  110POPC   C1J 5693   0.347   6.083   3.268 -0.2931 -0.0665  0.0893
  110POPC   C1K 5694   0.494   6.082   3.225 -0.4262 -0.6522 -0.3745
  110POPC   C1L 5695   0.505   6.056   3.075  0.0859 -0.5834 -0.3507
  110POPC   C1M 5696   0.599   6.156   3.008 -0.5340  0.6390  0.5574
  110POPC   C1N 5697   0.742   6.150   3.063 -0.4417  0.6678  0.3196
  110POPC   C1O 5698   0.840   6.229   2.975  0.1749 -0.2094  0.1987
  110POPC   C1P 5699   0.981   6.184   3.011  0.3215  0.2277  0.1707
  110POPC   C1Q 5700   1.021   6.221   3.154  0.3237  0.3382  0.1422
  110POPC   C1R 5701   1.042   0.032   3.155  0.5600  0.3062 -0.0897
  110POPC    CE 5702   0.131   6.252   4.474  0.1745  0.3321 -0.0185
  110POPC    OG 5703   0.108   0.016   4.378  0.1123  0.3465  0.0121
  110POPC   C2A 5704   6.290   0.041   4.350  0.1371  0.4533 -0.0040
  110POPC    OH 5705   6.202   0.027   4.435  0.1897 -0.5830 -0.1071
  110POPC   C2B 5706   6.269   0.118   4.226 -0.7492  0.4929  0.1670
  110POPC   C2C 5707   0.048   0.090   4.105 -0.1988  0.1635  0.6510
  110POPC   C2D 5708   0.134   0.198   4.040 -0.1608  0.0672  0.5402
  110POPC   C2E 5709   0.254   0.235   4.128  0.3232 -0.2318  0.0135
  110POPC   C2F 5710   0.340   0.110   4.145 -0.1889 -0.5767  0.1105
  110POPC   C2G 5711   0.464   0.137   4.231 -0.1716  0.4728 -0.2232
  110POPC   C2H 5712   0.579   0.041   4.198 -0.2125  0.3145  0.0874
  110POPC   C2I 5713   0.719   0.095   4.222 -0.1732 -0.1008  0.8461
  110POPC   C2J 5714   0.836   6.340   4.194  0.0087  0.4868 -0.4922
  110POPC   C2K 5715   0.840   6.290   4.049 -0.0565 -0.1742 -0.2706
  110POPC   C2L 5716   0.963   6.200   4.038  0.5249  0.4594  0.7856
  110POPC   C2M 5717   1.001   6.168   3.893 -0.4667  0.1032  0.5933
  110POPC   C2N 5718   1.082   6.278   3.823 -0.1880 -0.3723  0.1570
  110POPC   C2O 5719   1.092   6.266   3.671 -0.0331 -0.0065  0.1399
  110POPC   C2P 5720   1.127   0.064   3.615  0.3500 -0.1654 -0.0169
  111POPC   CN1 5721   5.893   0.459   4.450 -0.4989  0.5729 -0.1504
  111POPC   CN2 5722   6.071   0.347   4.544 -0.4780 -0.8090 -0.2803
  111POPC   CN3 5723   5.916   0.228   4.404  0.6584  0.1162  0.0655
  111POPC   NTM 5724   5.929   0.329   4.510 -0.6961  0.5237 -0.1367
  111POPC    CA 5725   5.847   0.297   4.628 -0.3645 -0.0823 -0.0670
  111POPC    CB 5726   5.698   0.333   4.623 -0.4192 -0.2586  0.2955
  111POPC    OA 5727   5.616   0.313   4.508  0.1487  0.0793 -0.1720
  111POPC     P 5728   5.466   0.370   4.515  0.0729 -0.1323 -0.0509
  111POPC    OB 5729   5.422   0.347   4.654  0.1926  0.3579  0.0698
  111POPC    OC 5730   5.401   0.309   4.397  0.2118  0.5035 -0.4623
  111POPC    OD 5731   5.511   0.524   4.501  0.1011 -0.1439 -0.0892
  111POPC    CC 5732   5.407   0.581   4.421 -0.1014 -0.2297  0.1103
  111POPC    CD 5733   5.469   0.681   4.323  0.2527 -0.2602  0.3019
  111POPC    OE 5734   5.378   0.786   4.290  0.1376 -0.4496  0.0256
  111POPC   C1A 5735   5.404   0.909   4.332  0.1476 -0.4428 -0.0008
  111POPC    OF 5736   5.510   0.923   4.392 -0.0814  0.3268  0.2307
  111POPC   C1B 5737   5.332   1.015   4.258  0.0759 -0.2625  0.3293
  111POPC   C1C 5738   5.416   1.085   4.151 -0.3478 -0.0841  0.1113
  111POPC   C1D 5739   5.432   1.013   4.017 -0.1026 -0.1518  0.1779
  111POPC   C1E 5740   5.513   1.095   3.916 -0.3117  0.1053  0.2176
  111POPC   C1F 5741   5.574   1.011   3.803  0.2881  0.3952  0.3245
  111POPC   C1G 5742   5.619   1.104   3.690  0.3744  0.0770  0.0977
  111POPC   C1H 5743   5.666   1.021   3.570  0.1913 -0.0694  0.1261
  111POPC   C1I 5744   5.692   1.108   3.446 -0.2874  0.3752  0.3388
  111POPC   C1J 5745   5.802   1.102   3.373 -0.1523 -0.2405  0.5894
  111POPC   C1K 5746   5.925   1.029   3.428 -0.0628 -0.3590  0.2354
  111POPC   C1L 5747   6.055   1.095   3.383 -0.1184 -0.0669  0.5002
  111POPC   C1M 5748   6.168   1.020   3.453  0.1370 -0.0543  0.1110
  111POPC   C1N 5749   6.196   0.884   3.389  0.6984  0.0813  0.0668
  111POPC   C1O 5750   0.011   0.815   3.444  0.2518 -0.7600  0.0533
  111POPC   C1P 5751   0.040   0.692   3.359  0.6267 -0.8304  0.2798
  111POPC   C1Q 5752   0.064   0.717   3.210 -0.0059 -0.3973  0.2460
  111POPC   C1R 5753   0.101   0.593   3.128  0.1537 -0.1855 -0.0058
  111POPC    CE 5754   5.560   0.606   4.226  0.1584  0.2925 -0.2187
  111POPC    OG 5755   5.499   0.504   4.147 -0.0781 -0.0126  0.3521
  111POPC   C2A 5756   5.580   0.412   4.095 -0.3458  0.1930 -0.4381
  111POPC    OH 5757   5.701   0.422   4.116 -0.4529  0.1890  0.1766
  111POPC   C2B 5758   5.511   0.308   4.015 -0.5049  0.2067 -0.3182
  111POPC   C2C 5759   5.549   0.316   3.867  0.1275  0.2341 -0.1567
  111POPC   C2D 5760   5.447   0.237   3.785 -0.2840  0.2592  0.3235
  111POPC   C2E 5761   5.497   0.242   3.640 -0.0653 -0.4413  0.3695
  111POPC   C2F 5762   5.402   0.191   3.531  0.2942  0.0175 -0.1621
  111POPC   C2G 5763   5.463   0.197   3.391  0.7041 -0.1476  0.0063
  111POPC   C2H 5764   5.366   0.155   3.281  0.1825 -0.3272  0.5294
  111POPC   C2I 5765   5.449   0.132   3.154 -0.0063 -0.7527  0.4811
  111POPC   C2J 5766   5.363   0.067   3.045 -0.0955 -0.0072  0.0976
  111POPC   C2K 5767   5.326   6.265   3.089  0.1468 -0.1970 -0.3138
  111POPC   C2L 5768   5.433   6.170   3.032 -0.1245 -0.2589 -0.7269
  111POPC   C2M 5769   5.392   6.023   3.036  0.0278 -0.2852  0.2423
  111POPC   C2N 5770   5.519   5.940   3.020 -0.2846 -0.6427 -0.4462
  111POPC   C2O 5771   5.607   5.943   3.145 -0.1231  0.4133 -0.5773
  111POPC   C2P 5772   5.734   5.870   3.100 -0.1651  0.1735 -0.3126
  112POPC   CN1 5773   2.818   1.093   4.081 -0.0532  0.0467 -0.1291
  112POPC   CN2 5774   2.600   1.102   4.151 -0.1879  0.8750 -0.7675
  112POPC   CN3 5775   2.744   1.307   4.133  0.0410  0.1473  0.4523
  112POPC   NTM 5776   2.730   1.166   4.174  0.1017  0.0191  0.0395
  112POPC    CA 5777   2.795   1.152   4.306  0.1408  0.1854  0.0378
  112POPC    CB 5778   2.787   1.033   4.401 -0.3347  0.3609  0.2210
  112POPC    OA 5779   2.804   0.905   4.341 -0.2756  0.1990  0.5796
  112POPC     P 5780   2.753   0.792   4.444  0.0498 -0.0904  0.4271
  112POPC    OB 5781   2.768   0.830   4.586 -0.1002  0.6285  0.2563
  112POPC    OC 5782   2.788   0.657   4.394 -0.3253  0.0059 -0.1136
  112POPC    OD 5783   2.595   0.814   4.422  0.1129 -0.4388 -0.4267
  112POPC    CC 5784   2.533   0.733   4.322  0.1149 -0.5232 -0.3590
  112POPC    CD 5785   2.559   0.753   4.172  0.4256  0.2325 -0.2093
  112POPC    OE 5786   2.446   0.737   4.085 -0.1435 -0.2338  0.6037
  112POPC   C1A 5787   2.352   0.831   4.086 -0.0653 -0.1485 -0.0163
  112POPC    OF 5788   2.358   0.926   4.165 -0.4962  0.0206 -0.1867
  112POPC   C1B 5789   2.276   0.823   3.960  0.2861 -0.2314 -0.2253
  112POPC   C1C 5790   2.270   0.948   3.872  0.3947  0.1720  0.3395
  112POPC   C1D 5791   2.403   1.022   3.852  0.4532 -0.0332 -0.0318
  112POPC   C1E 5792   2.503   0.949   3.762  0.0613 -0.4020 -0.1755
  112POPC   C1F 5793   2.648   0.999   3.770 -0.1013  0.1031 -0.3078
  112POPC   C1G 5794   2.674   1.124   3.687  0.2740 -0.1278 -0.5412
  112POPC   C1H 5795   2.815   1.181   3.705  0.1562 -0.0855  0.2871
  112POPC   C1I 5796   2.813   1.313   3.628  0.1235 -0.5182 -0.4712
  112POPC   C1J 5797   2.919   1.358   3.561  0.2452  0.4600  0.3441
  112POPC   C1K 5798   3.032   1.257   3.538 -0.0447  0.2619 -0.2278
  112POPC   C1L 5799   3.080   1.256   3.393 -0.1884  0.2635 -0.2759
  112POPC   C1M 5800   3.202   1.165   3.376 -0.3684  0.0485 -0.4143
  112POPC   C1N 5801   3.233   1.125   3.231 -0.5178 -0.4785 -0.3046
  112POPC   C1O 5802   3.343   1.019   3.230  0.2870  0.3370 -0.2498
  112POPC   C1P 5803   3.392   0.977   3.092  0.0416  0.1448 -0.2800
  112POPC   C1Q 5804   3.445   1.092   3.006  0.4784  0.2405  0.1141
  112POPC   C1R 5805   3.495   1.037   2.872 -0.1276 -0.3608  0.1271
  112POPC    CE 5806   2.674   0.665   4.126  0.0440 -0.2691 -0.2059
  112POPC    OG 5807   2.761   0.739   4.040  0.3338  0.2711  0.5475
  112POPC   C2A 5808   2.875   0.678   4.006 -0.1466 -0.0821 -0.4688
  112POPC    OH 5809   2.893   0.561   4.039 -0.0401  0.0805  0.0550
  112POPC   C2B 5810   2.962   0.759   3.918  0.1055 -0.1686 -0.3006
  112POPC   C2C 5811   2.954   0.733   3.768 -0.1920  0.2801 -0.3661
  112POPC   C2D 5812   3.078   0.801   3.711  0.1648  0.2931  0.4211
  112POPC   C2E 5813   3.072   0.792   3.559  0.1168  0.0354  0.4379
  112POPC   C2F 5814   2.937   0.825   3.496  0.3867  0.2101 -0.0577
  112POPC   C2G 5815   2.910   0.775   3.354  0.2478  0.3303 -0.0738
  112POPC   C2H 5816   2.878   0.626   3.339  0.0992  0.3615 -0.0686
  112POPC   C2I 5817   2.841   0.601   3.192 -0.1343 -0.1592  0.0784
  112POPC   C2J 5818   2.794   0.458   3.165 -0.1660 -0.1113 -0.1165
  112POPC   C2K 5819   2.673   0.412   3.246 -0.0314  0.0617  0.1820
  112POPC   C2L 5820   2.537   0.469   3.207 -0.1882 -0.1934  0.3461
  112POPC   C2M 5821   2.435   0.423   3.311 -0.4677 -0.0835  0.1213
  112POPC   C2N 5822   2.295   0.481   3.291 -0.5529 -0.1741  0.4513
  112POPC   C2O 5823   2.277   0.621   3.350 -0.1590  0.0449  0.0549
  112POPC   C2P 5824   2.293   0.622   3.502 -0.0058 -0.2946  0.0407
  113POPC   CN1 5825   3.779   3.158   4.773 -0.1070  0.2051 -0.4294
  113POPC   CN2 5826   3.595   3.029   4.875 -0.1825 -0.1419  0.2429
  113POPC   CN3 5827   3.560   3.148   4.671 -0.0868  0.6596 -0.0311
  113POPC   NTM 5828   3.635   3.148   4.797 -0.0074 -0.4009 -0.0667
  113POPC    CA 5829   3.588   3.263   4.876 -0.4816 -0.6839  0.0710
  113POPC    CB 5830   3.442   3.304   4.899 -0.2168  0.3814 -0.0874
  113POPC    OA 5831   3.365   3.185   4.919 -0.2411  0.4645  0.3241
  113POPC     P 5832   3.209   3.218   4.897 -0.2358  0.2858  0.0167
  113POPC    OB 5833   3.195   3.365   4.892  0.0378  0.3334  0.5687
  113POPC    OC 5834   3.122   3.130   4.978  0.2933  0.0547  0.3408
  113POPC    OD 5835   3.200   3.159   4.747  0.7688 -0.1289  0.1107
  113POPC    CC 5836   3.176   3.018   4.737 -0.1480  0.0467 -0.2664
  113POPC    CD 5837   3.212   2.974   4.595  0.2299  0.3625 -0.2699
  113POPC    OE 5838   3.174   3.042   4.475 -0.1694 -0.2012 -0.4649
  113POPC   C1A 5839   3.272   3.086   4.396 -0.2663  0.7025 -0.0857
  113POPC    OF 5840   3.386   3.102   4.437 -0.2979 -0.6500  0.5648
  113POPC   C1B 5841   3.224   3.124   4.261 -0.4262  0.6333 -0.0498
  113POPC   C1C 5842   3.219   2.993   4.183 -0.8808  0.2951  0.5447
  113POPC   C1D 5843   3.161   3.025   4.045  0.2284  0.1082  0.0298
  113POPC   C1E 5844   3.165   2.897   3.962 -0.1678  0.2835 -0.2612
  113POPC   C1F 5845   3.112   2.908   3.819  0.2344 -0.5903 -0.4885
  113POPC   C1G 5846   3.224   2.967   3.733  0.0135  0.5495 -0.0207
  113POPC   C1H 5847   3.185   2.973   3.585  0.2388 -0.3889 -0.1256
  113POPC   C1I 5848   3.295   3.049   3.510  0.4106 -0.3256  0.1865
  113POPC   C1J 5849   3.342   3.036   3.387  0.3302 -0.5754  0.1824
  113POPC   C1K 5850   3.279   2.935   3.290  0.1333  0.2632 -0.5697
  113POPC   C1L 5851   3.387   2.897   3.189  0.3629  0.0632 -0.2481
  113POPC   C1M 5852   3.319   2.810   3.083 -0.0346  0.2169 -0.1198
  113POPC   C1N 5853   3.420   2.766   2.977 -0.5784 -0.3653 -0.3961
  113POPC   C1O 5854   3.517   2.660   3.029 -0.3139  0.0659 -0.0187
  113POPC   C1P 5855   3.646   2.675   2.948 -0.1729  0.0421  0.2008
  113POPC   C1Q 5856   3.764   2.589   2.995  0.0227  0.0324 -0.3077
  113POPC   C1R 5857   3.823   2.647   3.124 -0.4006  0.2632 -0.2161
  113POPC    CE 5858   3.176   2.825   4.591 -0.1328  0.3883  1.3361
  113POPC    OG 5859   3.037   2.806   4.618 -0.3588  0.3294  0.1551
  113POPC   C2A 5860   2.975   2.707   4.554  0.3262  0.0896 -0.1471
  113POPC    OH 5861   3.046   2.617   4.510  0.3189  0.0343 -0.0440
  113POPC   C2B 5862   2.829   2.698   4.575  0.3185 -0.1344 -0.2993
  113POPC   C2C 5863   2.755   2.812   4.505  0.5248  0.2459  0.1025
  113POPC   C2D 5864   2.780   2.830   4.356 -0.2373 -0.3840 -0.1083
  113POPC   C2E 5865   2.739   2.966   4.299 -0.7808 -0.3932  0.2546
  113POPC   C2F 5866   2.790   2.997   4.158 -1.1140 -0.6606  0.0735
  113POPC   C2G 5867   2.750   3.142   4.127  0.3058 -0.4788 -1.0236
  113POPC   C2H 5868   2.604   3.158   4.081  0.0338  0.9698  0.2613
  113POPC   C2I 5869   2.595   3.092   3.944  0.0666 -0.0337  0.7310
  113POPC   C2J 5870   2.466   3.111   3.863  0.1748 -0.5977  0.4203
  113POPC   C2K 5871   2.491   3.081   3.715  0.1643  0.7468  0.1359
  113POPC   C2L 5872   2.356   3.083   3.644  0.0920 -0.3291  0.2189
  113POPC   C2M 5873   2.354   3.067   3.492  0.1718 -0.1136  0.1944
  113POPC   C2N 5874   2.420   3.174   3.405 -0.1980  0.1549  0.2431
  113POPC   C2O 5875   2.427   3.138   3.256 -0.5496  0.2190  0.2092
  113POPC   C2P 5876   2.502   3.254   3.188  1.1993 -0.5155  0.8250
  114POPC   CN1 5877   5.816   5.549   4.760  0.0015  0.2706 -0.0860
  114POPC   CN2 5878   5.695   5.622   4.962 -0.0023  0.2692  0.1637
  114POPC   CN3 5879   5.923   5.614   4.967 -0.2075  0.2404  0.1556
  114POPC   NTM 5880   5.808   5.546   4.907 -0.1100  0.2942 -0.0912
  114POPC    CA 5881   5.806   5.412   4.966 -0.4658  0.2275 -0.2502
  114POPC    CB 5882   5.698   5.306   4.944 -0.5092  0.2339 -0.0649
  114POPC    OA 5883   5.564   5.356   4.955 -0.4477  0.3602  0.1282
  114POPC     P 5884   5.457   5.267   4.874 -0.0189 -0.1615  0.1271
  114POPC    OB 5885   5.318   5.305   4.909 -0.1802 -0.2788 -0.3789
  114POPC    OC 5886   5.509   5.129   4.886 -0.3723 -0.2986  0.1059
  114POPC    OD 5887   5.502   5.314   4.727  0.0568  0.1431  0.2452
  114POPC    CC 5888   5.429   5.435   4.708 -0.6792 -0.3272  0.0281
  114POPC    CD 5889   5.466   5.522   4.587 -0.4716 -0.2730  0.1309
  114POPC    OE 5890   5.388   5.642   4.588  0.1147  0.1111  0.4044
  114POPC   C1A 5891   5.447   5.746   4.645  0.0828  0.0650  0.5230
  114POPC    OF 5892   5.555   5.740   4.704  0.4259  0.1187 -0.0849
  114POPC   C1B 5893   5.364   5.866   4.617 -0.0372 -0.0143  0.5413
  114POPC   C1C 5894   5.403   5.994   4.691  0.3106  0.2385 -0.0785
  114POPC   C1D 5895   5.512   6.080   4.625  0.1013  1.0272  0.5930
  114POPC   C1E 5896   5.451   6.159   4.509  0.1208 -0.1272 -0.2188
  114POPC   C1F 5897   5.567   6.215   4.427  0.3905  0.8262  0.8068
  114POPC   C1G 5898   5.517   6.297   4.308  0.0271  0.0490  0.4233
  114POPC   C1H 5899   5.632   6.334   4.213 -0.1710 -0.4302 -0.0094
  114POPC   C1I 5900   5.715   6.216   4.163  0.3545 -0.2461  0.4236
  114POPC   C1J 5901   5.828   6.239   4.096 -0.1724  0.1581 -0.3490
  114POPC   C1K 5902   5.867   0.031   4.031 -0.5344  0.2172 -0.4447
  114POPC   C1L 5903   5.956   0.006   3.910  0.1347 -0.0092  0.0903
  114POPC   C1M 5904   5.995   0.144   3.856 -0.1708  0.2224  0.4572
  114POPC   C1N 5905   6.100   0.125   3.746 -0.8143  0.5924 -0.2223
  114POPC   C1O 5906   6.153   0.251   3.677 -0.1169  0.3297 -0.1703
  114POPC   C1P 5907   6.216   0.342   3.782  0.0784  0.3794 -0.3302
  114POPC   C1Q 5908   6.303   0.445   3.709  0.1885  0.3348 -0.2634
  114POPC   C1R 5909   0.093   0.512   3.804  0.1865 -0.4330  0.2881
  114POPC    CE 5910   5.448   5.442   4.458  0.4646 -0.5475  0.1590
  114POPC    OG 5911   5.323   5.385   4.418  0.1745  0.0043  0.2674
  114POPC   C2A 5912   5.287   5.413   4.293 -0.1355  0.0374  0.3618
  114POPC    OH 5913   5.359   5.477   4.217 -0.2617  0.1508  0.3384
  114POPC   C2B 5914   5.165   5.336   4.259  0.0921 -0.0744 -0.2289
  114POPC   C2C 5915   5.190   5.247   4.138  0.1837  0.0554 -0.3061
  114POPC   C2D 5916   5.154   5.322   4.009  0.3788  0.3068 -0.2142
  114POPC   C2E 5917   5.084   5.241   3.900  0.6078  0.5638 -0.5519
  114POPC   C2F 5918   5.003   5.334   3.809 -0.5444 -0.4688 -0.5970
  114POPC   C2G 5919   4.937   5.271   3.687 -0.1214 -0.7797 -0.6657
  114POPC   C2H 5920   4.860   5.366   3.595  0.3265 -0.4507 -0.7009
  114POPC   C2I 5921   4.777   5.283   3.497 -0.4264  0.5271 -0.9043
  114POPC   C2J 5922   4.857   5.182   3.414 -0.0362 -0.3176  0.4651
  114POPC   C2K 5923   4.768   5.113   3.310 -0.2793  0.4982  0.1252
  114POPC   C2L 5924   4.711   5.219   3.215 -0.8514  0.0073 -0.0871
  114POPC   C2M 5925   4.639   5.138   3.108  0.5059 -0.0364 -1.0028
  114POPC   C2N 5926   4.583   5.244   3.013 -0.9152  0.7454  0.6526
  114POPC   C2O 5927   4.500   5.162   2.914  0.1933 -0.1795  0.4782
  114POPC   C2P 5928   4.457   5.247   2.795  0.5857  0.0402  0.4911
  115POPC   CN1 5929   4.032   4.017   4.870 -0.2564  0.5127 -0.0758
  115POPC   CN2 5930   4.140   4.210   4.797 -0.7210  0.1109 -0.2181
  115POPC   CN3 5931   4.151   4.032   4.659 -0.5370 -0.8413  0.1106
  115POPC   NTM 5932   4.154   4.064   4.802 -0.1453  0.1657 -0.1187
  115POPC    CA 5933   4.276   4.035   4.879 -0.3281  0.3068  0.2266
  115POPC    CB 5934   4.409   4.053   4.807 -0.1470  0.8727  0.6954
  115POPC    OA 5935   4.427   4.167   4.723 -0.3668  0.1372 -0.3702
  115POPC     P 5936   4.515   4.114   4.599 -0.0341  0.1514 -0.1430
  115POPC    OB 5937   4.578   3.982   4.621  0.5061  0.3522 -0.4707
  115POPC    OC 5938   4.591   4.220   4.530 -0.0144  0.4259  0.2985
  115POPC    OD 5939   4.400   4.067   4.496 -0.3209  0.2312  0.1406
  115POPC    CC 5940   4.461   4.045   4.369 -0.1977 -0.8555  0.3827
  115POPC    CD 5941   4.377   4.033   4.242  0.2228 -0.1160  0.0331
  115POPC    OE 5942   4.453   4.009   4.123 -0.2248  0.0763 -0.2952
  115POPC   C1A 5943   4.447   3.884   4.078  0.3658 -0.1436  0.2161
  115POPC    OF 5944   4.389   3.797   4.142  0.0027 -0.1127 -0.0644
  115POPC   C1B 5945   4.530   3.874   3.955  0.0352 -0.6143  0.0270
  115POPC   C1C 5946   4.467   3.779   3.853  0.0601  0.0011 -0.5711
  115POPC   C1D 5947   4.354   3.841   3.771 -0.3885  0.1842  0.1691
  115POPC   C1E 5948   4.405   3.961   3.690  0.1343 -0.7553 -0.9211
  115POPC   C1F 5949   4.288   4.030   3.620 -0.0469  0.1170  0.2264
  115POPC   C1G 5950   4.358   4.152   3.562 -0.0214  0.0318  0.0789
  115POPC   C1H 5951   4.271   4.197   3.444 -0.4583 -0.3653  0.2476
  115POPC   C1I 5952   4.333   4.315   3.368  0.0314 -0.6396  0.2127
  115POPC   C1J 5953   4.361   4.299   3.239 -0.1719 -0.1308  0.1015
  115POPC   C1K 5954   4.293   4.184   3.163 -0.0362 -0.3308  0.2792
  115POPC   C1L 5955   4.388   4.134   3.055 -0.0923  0.1785 -0.0071
  115POPC   C1M 5956   4.386   4.219   2.927  0.4233  0.1157 -0.0565
  115POPC   C1N 5957   4.503   4.188   2.833  0.4968  0.6267 -0.1383
  115POPC   C1O 5958   4.457   4.164   2.689  0.1884 -0.0336  0.0658
  115POPC   C1P 5959   4.366   4.268   2.623  0.4254  0.0482 -0.1296
  115POPC   C1Q 5960   4.407   4.415   2.622  0.5986  0.0063  0.6492
  115POPC   C1R 5961   4.302   4.495   2.545  0.3469 -0.8061  0.1401
  115POPC    CE 5962   4.291   4.160   4.252  0.1694 -0.1147 -0.4028
  115POPC    OG 5963   4.244   4.203   4.124 -0.2333 -0.5850 -0.4149
  115POPC   C2A 5964   4.156   4.302   4.120  0.0735 -0.2923 -0.0263
  115POPC    OH 5965   4.082   4.320   4.217 -0.3489  0.0662 -0.4141
  115POPC   C2B 5966   4.152   4.378   3.993  0.1211 -0.0546  0.1140
  115POPC   C2C 5967   4.165   4.529   4.008  0.3441 -0.0541 -0.0961
  115POPC   C2D 5968   4.115   4.614   3.890  0.0049 -0.1025  0.0137
  115POPC   C2E 5969   4.189   4.595   3.758 -0.3012 -0.1115 -0.1557
  115POPC   C2F 5970   4.324   4.664   3.770 -0.2889 -0.0367 -0.7035
  115POPC   C2G 5971   4.425   4.643   3.656  0.3506 -0.2730 -0.1041
  115POPC   C2H 5972   4.570   4.692   3.660  0.2254  0.0696  0.3495
  115POPC   C2I 5973   4.643   4.647   3.533  0.0231  0.3384  0.1364
  115POPC   C2J 5974   4.599   4.694   3.395  0.1457 -0.3471 -0.1425
  115POPC   C2K 5975   4.667   4.610   3.287  0.4468  0.1865 -0.3722
  115POPC   C2L 5976   4.655   4.664   3.144 -0.0516 -0.0896 -0.4373
  115POPC   C2M 5977   4.508   4.659   3.105 -0.3483 -0.1618  0.6659
  115POPC   C2N 5978   4.478   4.707   2.963 -0.2069 -0.3146  0.5856
  115POPC   C2O 5979   4.328   4.713   2.935 -0.0873 -0.0884 -0.0283
  115POPC   C2P 5980   4.306   4.808   2.817  0.4944  0.0689 -0.0142
  116POPC   CN1 5981   1.381   4.872   4.994  0.3467 -0.0792  0.2254
  116POPC   CN2 5982   1.602   4.827   4.917  0.0276  0.2226 -0.7686
  116POPC   CN3 5983   1.424   4.674   4.862 -0.0873 -0.6178  0.1987
  116POPC   NTM 5984   1.477   4.766   4.965  0.2266  0.0104 -0.5175
  116POPC    CA 5985   1.511   4.693   5.088  0.0701 -0.0044 -0.4835
  116POPC    CB 5986   1.590   4.562   5.093 -0.3804 -0.2583  0.2115
  116POPC    OA 5987   1.715   4.568   5.023 -0.4667 -0.3632  0.0468
  116POPC     P 5988   1.805   4.435   5.027  0.0423 -0.0267 -0.1983
  116POPC    OB 5989   1.789   4.349   5.146 -0.2926 -0.5229 -0.6008
  116POPC    OC 5990   1.943   4.463   4.980 -0.0540  0.1541 -0.3752
  116POPC    OD 5991   1.734   4.360   4.904  0.0979 -0.4454  0.0218
  116POPC    CC 5992   1.787   4.384   4.773  0.3935  0.2194  0.2557
  116POPC    CD 5993   1.772   4.525   4.717  0.1448 -0.1146 -0.5278
  116POPC    OE 5994   1.705   4.525   4.590 -0.0327 -0.6749 -0.4380
  116POPC   C1A 5995   1.656   4.639   4.541  0.2570 -0.3064  0.1178
  116POPC    OF 5996   1.645   4.733   4.619  0.5583 -0.5624  0.4737
  116POPC   C1B 5997   1.654   4.630   4.393  0.3564  0.3250  0.0758
  116POPC   C1C 5998   1.517   4.652   4.330  0.5909  0.4209 -0.4029
  116POPC   C1D 5999   1.525   4.625   4.180  0.5106  0.7237 -0.4637
  116POPC   C1E 6000   1.405   4.695   4.116  0.1217  0.0661 -0.4602
  116POPC   C1F 6001   1.358   4.598   4.008 -0.2701 -0.3015  0.0311
  116POPC   C1G 6002   1.249   4.650   3.914  0.0143 -0.1893 -0.2407
  116POPC   C1H 6003   1.183   4.542   3.829  0.2674 -0.1832 -0.4457
  116POPC   C1I 6004   1.070   4.468   3.902 -0.1289  0.7732 -0.0789
  116POPC   C1J 6005   0.967   4.401   3.850  0.0112  0.1760  0.4050
  116POPC   C1K 6006   0.960   4.403   3.697 -0.3214  0.1361  0.4197
  116POPC   C1L 6007   0.872   4.289   3.646  0.5973 -0.4767  0.1900
  116POPC   C1M 6008   0.858   4.294   3.494 -0.2103  0.5279  0.2840
  116POPC   C1N 6009   0.882   4.153   3.438  0.2544  0.5961  0.3062
  116POPC   C1O 6010   0.862   4.154   3.287  0.2541  0.2729  0.3027
  116POPC   C1P 6011   0.986   4.216   3.220  0.3333 -0.3206 -0.1055
  116POPC   C1Q 6012   0.965   4.260   3.075  0.4228 -0.2996 -0.1121
  116POPC   C1R 6013   1.068   4.362   3.027 -0.2640  0.5368  0.1644
  116POPC    CE 6014   1.919   4.558   4.688  0.1258  0.0803 -0.4032
  116POPC    OG 6015   1.985   4.470   4.597  0.4216 -0.1502  0.0256
  116POPC   C2A 6016   2.040   4.539   4.496  0.2175 -0.1682 -0.0986
  116POPC    OH 6017   2.115   4.631   4.527  0.3068 -0.0158 -0.7604
  116POPC   C2B 6018   2.057   4.455   4.375  0.0369 -0.3989  0.0327
  116POPC   C2C 6019   2.117   4.536   4.259  0.8335 -0.4790  0.3833
  116POPC   C2D 6020   2.141   4.441   4.142  0.7306 -0.2630  0.1877
  116POPC   C2E 6021   2.208   4.511   4.023  0.5301 -0.4325 -0.0265
  116POPC   C2F 6022   2.227   4.417   3.904 -0.0761 -0.3047 -0.2274
  116POPC   C2G 6023   2.292   4.495   3.789  0.6251 -0.1911  0.2372
  116POPC   C2H 6024   2.335   4.397   3.679  0.4409  0.2928 -0.2726
  116POPC   C2I 6025   2.384   4.465   3.551 -0.0038  0.5010 -0.3341
  116POPC   C2J 6026   2.507   4.551   3.581  0.8141 -0.6286 -0.3776
  116POPC   C2K 6027   2.525   4.667   3.482 -0.5298  0.4927  0.6438
  116POPC   C2L 6028   2.645   4.745   3.536  0.3047  0.1486 -0.6604
  116POPC   C2M 6029   2.668   4.868   3.449 -0.3896  0.6584 -0.1318
  116POPC   C2N 6030   2.787   4.951   3.497  0.2590 -0.5280  0.3318
  116POPC   C2O 6031   2.760   5.001   3.639 -0.1996 -0.1291  0.1053
  116POPC   C2P 6032   2.882   5.078   3.690 -0.3432  0.5333 -0.5289
  117POPC   CN1 6033   4.882   4.022   4.381 -0.3474  0.4664  0.4646
  117POPC   CN2 6034   4.916   4.247   4.460  0.0503  0.2211 -0.3740
  117POPC   CN3 6035   5.102   4.119   4.394  0.2169  0.0206  0.0470
  117POPC   NTM 6036   4.970   4.110   4.459  0.2037  0.2789  0.0591
  117POPC    CA 6037   4.986   4.062   4.597 -0.1387 -0.6401 -0.2128
  117POPC    CB 6038   4.875   4.069   4.702 -0.1335 -0.3995 -0.2227
  117POPC    OA 6039   4.831   4.199   4.739  0.4331 -0.4487  0.6543
  117POPC     P 6040   4.913   4.255   4.866  0.4421  0.0553  0.4315
  117POPC    OB 6041   4.931   4.148   4.967 -0.3479  0.0028  0.5241
  117POPC    OC 6042   4.848   4.383   4.899  0.0554  0.0392 -0.2656
  117POPC    OD 6043   5.050   4.292   4.791  0.1132 -0.0968 -0.2474
  117POPC    CC 6044   5.105   4.421   4.817  0.2843 -0.3316  0.5840
  117POPC    CD 6045   5.240   4.436   4.745 -0.0628 -0.3626 -0.0771
  117POPC    OE 6046   5.324   4.532   4.809 -0.0928 -0.4312  0.0650
  117POPC   C1A 6047   5.401   4.491   4.910  0.2243 -0.1489 -0.0615
  117POPC    OF 6048   5.373   4.393   4.978  0.6019  0.0389  0.3680
  117POPC   C1B 6049   5.499   4.596   4.945 -0.0668 -0.0358  0.4214
  117POPC   C1C 6050   5.644   4.547   4.946 -0.1654 -0.3772 -0.7488
  117POPC   C1D 6051   5.689   4.494   4.810 -0.2143 -0.2252 -0.8234
  117POPC   C1E 6052   5.827   4.427   4.808  0.0373  0.2504  0.1038
  117POPC   C1F 6053   5.841   4.347   4.679  0.1833 -0.2378  0.4207
  117POPC   C1G 6054   5.978   4.320   4.617  0.0820  0.1982 -0.0012
  117POPC   C1H 6055   6.049   4.449   4.577  0.0549  0.0980 -0.3708
  117POPC   C1I 6056   6.188   4.425   4.516  0.1747  0.1658 -0.1228
  117POPC   C1J 6057   6.230   4.467   4.397  0.1423  0.6840  0.0466
  117POPC   C1K 6058   6.131   4.547   4.312  0.1509  0.2199 -0.4063
  117POPC   C1L 6059   6.153   4.523   4.163  0.5760  0.4198 -0.3774
  117POPC   C1M 6060   6.021   4.556   4.094  0.0554 -0.2428  0.2794
  117POPC   C1N 6061   6.004   4.434   4.003 -0.2058  0.0048 -0.0071
  117POPC   C1O 6062   5.871   4.439   3.928 -0.3724 -0.1031  0.2817
  117POPC   C1P 6063   5.832   4.307   3.861  0.4593  0.1646 -0.7363
  117POPC   C1Q 6064   5.688   4.321   3.813  0.2711 -0.3066 -0.3194
  117POPC   C1R 6065   5.621   4.190   3.770  0.0449 -0.3010  0.0127
  117POPC    CE 6066   5.217   4.452   4.594 -0.3864  0.5140  0.0539
  117POPC    OG 6067   5.138   4.563   4.552 -0.5712  0.3207 -0.1107
  117POPC   C2A 6068   5.124   4.574   4.421  0.1379  0.0669 -0.2124
  117POPC    OH 6069   5.109   4.471   4.355  0.3318  0.1414 -0.3742
  117POPC   C2B 6070   5.070   4.704   4.374  0.3741  0.1469 -0.2624
  117POPC   C2C 6071   5.102   4.731   4.227 -0.0221  0.1625 -0.3471
  117POPC   C2D 6072   5.024   4.852   4.175 -0.2947  0.2487  0.2515
  117POPC   C2E 6073   5.049   4.889   4.029 -0.2662 -0.2334  0.1315
  117POPC   C2F 6074   5.007   4.780   3.930 -0.4124  0.2786 -0.3773
  117POPC   C2G 6075   5.044   4.834   3.792  0.1699  0.7587 -0.0402
  117POPC   C2H 6076   5.005   4.739   3.678  0.6677  0.0650  0.3582
  117POPC   C2I 6077   5.079   4.796   3.557 -0.3719  0.2069 -0.2198
  117POPC   C2J 6078   5.059   4.702   3.438 -0.2113 -0.3419  0.1854
  117POPC   C2K 6079   5.084   4.785   3.312 -0.2516 -0.5906  0.0128
  117POPC   C2L 6080   5.035   4.710   3.188 -0.3024 -0.1115 -0.2586
  117POPC   C2M 6081   5.053   4.787   3.057 -0.2059  0.1109 -0.1140
  117POPC   C2N 6082   4.980   4.922   3.048 -0.4321 -0.0033 -0.0005
  117POPC   C2O 6083   5.027   4.997   2.923  0.3655 -0.3846  0.0625
  117POPC   C2P 6084   4.930   5.105   2.878  0.6005 -0.2014 -0.0047
  118POPC   CN1 6085   2.091   3.317   4.842 -0.0756  0.8713 -0.4470
  118POPC   CN2 6086   1.930   3.177   4.723 -0.4755  0.0913 -0.8589
  118POPC   CN3 6087   1.897   3.408   4.743  0.0492 -0.1350 -0.1230
  118POPC   NTM 6088   1.949   3.291   4.814  0.1357 -0.3124 -0.4765
  118POPC    CA 6089   1.883   3.284   4.945 -0.2523  0.0617 -0.6515
  118POPC    CB 6090   1.736   3.243   4.960 -0.2700  0.4457  0.3044
  118POPC    OA 6091   1.677   3.128   4.899 -0.0698  0.2904  0.4005
  118POPC     P 6092   1.694   2.990   4.980  0.0141  0.1013  0.0648
  118POPC    OB 6093   1.593   2.899   4.921 -0.3156  0.5491 -0.0656
  118POPC    OC 6094   1.703   3.027   5.123 -0.3791  0.1781  0.0697
  118POPC    OD 6095   1.846   2.949   4.947  0.0898  0.0824  0.4323
  118POPC    CC 6096   1.856   2.816   5.000 -0.1106  0.0514  0.3929
  118POPC    CD 6097   1.999   2.767   4.973 -0.2157 -0.2185  0.3265
  118POPC    OE 6098   2.021   2.628   4.996  0.1268 -0.1282  0.5464
  118POPC   C1A 6099   1.985   2.539   4.904  0.7608  0.2193 -0.0479
  118POPC    OF 6100   1.955   2.580   4.792 -0.2010  0.1376  0.1736
  118POPC   C1B 6101   1.994   2.401   4.957  0.1179  0.0628 -0.3320
  118POPC   C1C 6102   2.079   2.309   4.870 -0.0233 -0.3840  0.0000
  118POPC   C1D 6103   2.230   2.330   4.879 -0.0817 -0.1407  0.4259
  118POPC   C1E 6104   2.308   2.248   4.776  0.1044 -0.4600  0.8172
  118POPC   C1F 6105   2.445   2.315   4.763 -0.0935 -0.2230 -0.1287
  118POPC   C1G 6106   2.559   2.235   4.699 -0.1977 -0.5495  0.0862
  118POPC   C1H 6107   2.681   2.325   4.679 -0.4716 -0.0752  0.5176
  118POPC   C1I 6108   2.800   2.256   4.611 -0.6055 -0.0490  0.2530
  118POPC   C1J 6109   2.823   2.263   4.481 -0.1814 -0.0672  0.3256
  118POPC   C1K 6110   2.760   2.369   4.390 -0.0361 -0.4900 -0.2730
  118POPC   C1L 6111   2.680   2.320   4.269 -0.3379 -0.2693 -0.1642
  118POPC   C1M 6112   2.606   2.441   4.213 -0.0830  0.0763  0.2396
  118POPC   C1N 6113   2.549   2.412   4.074 -0.2149 -0.1152  0.3332
  118POPC   C1O 6114   2.495   2.542   4.016 -0.2383 -0.3100 -0.0840
  118POPC   C1P 6115   2.598   2.652   3.986  0.3647 -0.7443  0.3955
  118POPC   C1Q 6116   2.695   2.603   3.878  0.4285 -0.2025  0.2092
  118POPC   C1R 6117   2.772   2.712   3.803 -0.4063 -0.0553 -0.4530
  118POPC    CE 6118   2.098   2.852   5.052  0.0649 -0.2403 -0.0023
  118POPC    OG 6119   2.236   2.838   5.015  0.3165  0.2762  0.7237
  118POPC   C2A 6120   2.284   2.896   4.906 -0.8594 -0.3554 -0.1527
  118POPC    OH 6121   2.238   3.002   4.865  0.0926  0.1245 -0.0156
  118POPC   C2B 6122   2.407   2.828   4.857 -0.1056  0.8161  0.0762
  118POPC   C2C 6123   2.393   2.785   4.711  0.5336 -0.0140  0.2508
  118POPC   C2D 6124   2.278   2.685   4.693  0.3398  0.2763 -0.1424
  118POPC   C2E 6125   2.228   2.694   4.549 -0.1435 -0.5188 -0.0280
  118POPC   C2F 6126   2.329   2.635   4.450 -0.0267 -0.0359 -0.2012
  118POPC   C2G 6127   2.279   2.667   4.309  0.1028  0.1240 -0.2106
  118POPC   C2H 6128   2.306   2.814   4.274 -0.1907  0.1780 -0.2217
  118POPC   C2I 6129   2.264   2.836   4.129 -0.0660 -0.0515 -0.2939
  118POPC   C2J 6130   2.115   2.863   4.106 -0.0052  0.5653  0.0297
  118POPC   C2K 6131   2.072   2.854   3.959  0.0910 -0.1235  0.0400
  118POPC   C2L 6132   1.922   2.831   3.941  0.1227 -0.4491  0.1911
  118POPC   C2M 6133   1.877   2.821   3.795  0.4476  0.1140  0.0488
  118POPC   C2N 6134   1.911   2.941   3.707  0.2580  0.0046 -0.1748
  118POPC   C2O 6135   1.899   2.925   3.555  0.1657  0.3172 -0.2022
  118POPC   C2P 6136   1.779   2.837   3.523  0.3649  0.2022 -0.6395
  119POPC   CN1 6137   5.901   2.779   4.363 -0.5577 -0.1987 -0.1116
  119POPC   CN2 6138   6.048   2.711   4.528  0.2961  0.3296 -0.0022
  119POPC   CN3 6139   5.823   2.626   4.504 -0.5045  0.2021  0.0442
  119POPC   NTM 6140   5.907   2.747   4.506  0.1668 -0.2562 -0.1532
  119POPC    CA 6141   5.851   2.862   4.578  0.0120 -0.5690  0.2357
  119POPC    CB 6142   5.871   2.882   4.728 -0.3088 -0.4324  0.2596
  119POPC    OA 6143   6.011   2.892   4.750 -0.3692  0.0038  0.4537
  119POPC     P 6144   6.057   2.951   4.893  0.2297 -0.2255  0.3584
  119POPC    OB 6145   6.171   2.872   4.944  0.3714 -0.1935  0.0959
  119POPC    OC 6146   5.936   2.986   4.970 -0.0105  0.4359 -0.3085
  119POPC    OD 6147   6.107   3.091   4.831  0.0564  0.1410  1.0435
  119POPC    CC 6148   6.220   3.079   4.744 -0.4716  0.0061  0.3683
  119POPC    CD 6149   6.212   3.145   4.607  0.0483 -0.1810  0.2455
  119POPC    OE 6150   6.298   3.091   4.507 -0.0420  0.0044  0.0652
  119POPC   C1A 6151   6.242   3.031   4.402 -0.0587  0.1660 -0.0179
  119POPC    OF 6152   6.121   3.007   4.406  0.0184 -0.2501 -0.1148
  119POPC   C1B 6153   0.026   2.963   4.310 -0.1169  0.1327 -0.0534
  119POPC   C1C 6154   6.276   2.842   4.239 -0.2737  0.2573 -0.1331
  119POPC   C1D 6155   0.077   2.764   4.167 -0.2871  0.0283  0.0953
  119POPC   C1E 6156   0.103   2.828   4.031  0.2655 -0.4163 -0.0107
  119POPC   C1F 6157   0.186   2.738   3.939  0.3806 -0.2277 -0.0914
  119POPC   C1G 6158   0.211   2.793   3.799 -0.0065 -0.4310 -0.2438
  119POPC   C1H 6159   0.308   2.703   3.721  0.0352 -0.5474 -0.0577
  119POPC   C1I 6160   0.350   2.769   3.589 -0.9060  0.0640 -0.0628
  119POPC   C1J 6161   0.463   2.718   3.542 -0.1947  1.0882  0.4845
  119POPC   C1K 6162   0.559   2.630   3.621  0.0815  0.5310 -0.4517
  119POPC   C1L 6163   0.640   2.539   3.527  0.0471 -0.0816  0.1000
  119POPC   C1M 6164   0.720   2.431   3.600  0.3529 -0.3079 -0.5701
  119POPC   C1N 6165   0.697   2.294   3.536  0.3785 -0.4360 -0.3024
  119POPC   C1O 6166   0.557   2.249   3.577  0.2743  0.0600 -0.1081
  119POPC   C1P 6167   0.550   2.096   3.586 -0.5468  0.0784 -0.3646
  119POPC   C1Q 6168   0.417   2.048   3.642 -0.2520 -0.4963 -0.1504
  119POPC   C1R 6169   0.415   1.896   3.622  0.2345 -0.5316  0.0689
  119POPC    CE 6170   6.190   3.296   4.624  0.2517 -0.1566  0.2988
  119POPC    OG 6171   6.295   3.376   4.678  0.1828  0.0343  0.1531
  119POPC   C2A 6172   6.252   3.483   4.744 -0.3801 -0.0213 -0.1191
  119POPC    OH 6173   6.131   3.504   4.757 -0.4280 -0.5177  0.2548
  119POPC   C2B 6174   0.042   3.582   4.790  0.0831 -0.3900 -0.3210
  119POPC   C2C 6175   0.007   3.729   4.763 -0.1237 -0.2793  0.5150
  119POPC   C2D 6176   0.028   3.747   4.613 -0.4139 -0.0151  0.5057
  119POPC   C2E 6177   6.291   3.892   4.594  0.0092  0.0831  0.1617
  119POPC   C2F 6178   6.283   3.935   4.448  0.0549 -0.0959  0.1059
  119POPC   C2G 6179   6.233   4.075   4.411  0.1846 -0.1590 -0.3094
  119POPC   C2H 6180   6.184   4.084   4.266 -0.3658  0.3144 -0.0958
  119POPC   C2I 6181   6.048   4.020   4.235  0.0445 -0.5046 -0.2369
  119POPC   C2J 6182   6.012   4.032   4.087 -0.4153 -0.1834 -0.1008
  119POPC   C2K 6183   5.895   3.940   4.052 -0.0975 -0.4766 -0.3950
  119POPC   C2L 6184   5.879   3.920   3.901 -0.3767 -0.3411 -0.3831
  119POPC   C2M 6185   5.966   3.806   3.848  0.0777 -0.2431  0.1514
  119POPC   C2N 6186   5.948   3.761   3.703  0.1073 -0.0313  0.0815
  119POPC   C2O 6187   6.068   3.680   3.654  0.1857 -0.0577  0.3152
  119POPC   C2P 6188   6.086   3.538   3.709 -0.6724 -0.3164 -0.0655
  120POPC   CN1 6189   2.363   5.408   4.670  0.4683  0.0580 -0.6309
  120POPC   CN2 6190   2.560   5.533   4.702 -0.0981 -0.2259 -0.0605
  120POPC   CN3 6191   2.521   5.365   4.857  0.4462 -0.1135 -0.0326
  120POPC   NTM 6192   2.452   5.464   4.773  0.0323 -0.3782 -0.0083
  120POPC    CA 6193   2.382   5.550   4.870 -0.2222 -0.3922 -0.1765
  120POPC    CB 6194   2.287   5.663   4.833  0.0062 -0.0439  0.2923
  120POPC    OA 6195   2.190   5.639   4.731  0.8278 -0.1458 -0.4746
  120POPC     P 6196   2.116   5.774   4.684  0.3782 -0.2740 -0.1381
  120POPC    OB 6197   2.091   5.859   4.802 -0.5549 -0.0548 -0.4876
  120POPC    OC 6198   2.001   5.754   4.593  0.4399 -0.3927 -0.1903
  120POPC    OD 6199   2.244   5.834   4.607  0.3320 -0.4314 -0.3394
  120POPC    CC 6200   2.240   5.785   4.473  0.3684  0.1467 -0.5557
  120POPC    CD 6201   2.339   5.858   4.382  0.2283  0.3318 -0.5600
  120POPC    OE 6202   2.309   5.825   4.246 -0.3129  0.0855 -0.3854
  120POPC   C1A 6203   2.354   5.909   4.153  0.0985  0.2430 -0.0499
  120POPC    OF 6204   2.432   6.000   4.180  0.3849 -0.0196  0.0126
  120POPC   C1B 6205   2.295   5.858   4.027 -0.3701 -0.2563  0.3673
  120POPC   C1C 6206   2.383   5.762   3.946 -0.3288  0.3301 -0.2943
  120POPC   C1D 6207   2.509   5.819   3.880  0.1126 -0.2662  0.0236
  120POPC   C1E 6208   2.635   5.820   3.967  0.1949 -0.3532 -0.0937
  120POPC   C1F 6209   2.761   5.885   3.911 -0.0638 -0.0411 -0.3223
  120POPC   C1G 6210   2.885   5.871   4.001 -0.1863 -0.6437 -0.2427
  120POPC   C1H 6211   3.001   5.957   3.951 -0.8024  0.0906 -0.4296
  120POPC   C1I 6212   3.121   5.940   4.044 -0.2121  0.3160 -1.1392
  120POPC   C1J 6213   3.227   5.869   4.005 -0.0945 -0.2422  0.1363
  120POPC   C1K 6214   3.236   5.827   3.858  0.1550  0.1539  0.0370
  120POPC   C1L 6215   3.321   5.703   3.832 -0.4498 -0.2768  0.0957
  120POPC   C1M 6216   3.312   5.658   3.686  0.5005 -0.2381  0.0203
  120POPC   C1N 6217   3.383   5.752   3.588  0.0095 -0.0489 -0.1582
  120POPC   C1O 6218   3.462   5.658   3.497  0.0273 -0.7464  0.5599
  120POPC   C1P 6219   3.387   5.553   3.415 -0.4286 -0.3093  0.4095
  120POPC   C1Q 6220   3.461   5.542   3.282  0.3686  0.2368  0.7987
  120POPC   C1R 6221   3.407   5.654   3.192 -0.2529  0.2142  1.1384
  120POPC    CE 6222   2.476   5.820   4.437  0.0610  0.1606 -0.2580
  120POPC    OG 6223   2.517   5.683   4.437 -0.1044  0.1092  0.0870
  120POPC   C2A 6224   2.625   5.661   4.362 -0.2189  0.0799 -0.0709
  120POPC    OH 6225   2.705   5.752   4.339  0.1655 -0.0789  0.6111
  120POPC   C2B 6226   2.661   5.518   4.345  0.0393  0.1479 -0.1043
  120POPC   C2C 6227   2.564   5.446   4.251 -0.6058  0.6622  0.1516
  120POPC   C2D 6228   2.585   5.469   4.101 -0.1461  0.0036  0.1107
  120POPC   C2E 6229   2.485   5.383   4.023 -0.0363 -0.5725  0.5977
  120POPC   C2F 6230   2.532   5.388   3.878 -0.2601  0.1798  0.5483
  120POPC   C2G 6231   2.435   5.330   3.774 -0.4028  0.7219  0.3698
  120POPC   C2H 6232   2.479   5.335   3.628 -0.1528  0.2991  0.4279
  120POPC   C2I 6233   2.504   5.478   3.579 -0.0319  0.0870 -0.1431
  120POPC   C2J 6234   2.551   5.477   3.434  0.1569  0.0594 -0.0820
  120POPC   C2K 6235   2.537   5.608   3.356  0.3100  0.2486  0.2115
  120POPC   C2L 6236   2.579   5.580   3.212 -0.2773 -0.2522  0.1344
  120POPC   C2M 6237   2.569   5.712   3.135 -0.1866 -0.1864  0.2352
  120POPC   C2N 6238   2.591   5.689   2.985  0.4947  0.3363  0.2469
  120POPC   C2O 6239   2.574   5.824   2.913 -0.0952  0.1830  0.0907
  120POPC   C2P 6240   2.678   5.926   2.960  0.0350  0.0249  0.1495
  121POPC   CN1 6241   2.911   0.338   4.326 -0.5573  0.2009 -0.4925
  121POPC   CN2 6242   3.054   0.315   4.123  0.2116  0.3349 -0.2350
  121POPC   CN3 6243   2.811   0.287   4.121  0.0178 -0.5625  0.5056
  121POPC   NTM 6244   2.935   0.270   4.198  0.4702 -0.1578 -0.1173
  121POPC    CA 6245   2.950   0.124   4.209 -0.3020 -0.2265  0.0719
  121POPC    CB 6246   3.024   0.051   4.321 -0.0117 -0.0094  0.0232
  121POPC    OA 6247   3.164   0.080   4.332 -0.0535  0.1967  0.0073
  121POPC     P 6248   3.239   0.018   4.460  0.1559 -0.2865 -0.3477
  121POPC    OB 6249   3.250   6.216   4.420  0.0420 -0.3934 -0.0092
  121POPC    OC 6250   3.149   0.042   4.576  0.2041 -0.9444 -0.1688
  121POPC    OD 6251   3.373   0.108   4.468  0.0204 -0.0622 -0.6076
  121POPC    CC 6252   3.351   0.246   4.441 -0.3088  0.0622  0.2632
  121POPC    CD 6253   3.378   0.347   4.553 -0.7543 -0.0014  0.4290
  121POPC    OE 6254   3.326   0.476   4.520  0.0174  0.2819  0.2919
  121POPC   C1A 6255   3.198   0.509   4.536 -0.1743 -0.5110  0.4609
  121POPC    OF 6256   3.108   0.427   4.519 -0.3247 -0.1235 -0.7052
  121POPC   C1B 6257   3.177   0.655   4.533 -0.1347 -0.5191 -0.4518
  121POPC   C1C 6258   3.152   0.714   4.394  0.1133  0.0943 -0.2416
  121POPC   C1D 6259   3.285   0.755   4.331  0.3170  0.3916  0.3793
  121POPC   C1E 6260   3.256   0.785   4.184  0.2005 -0.2679  0.2680
  121POPC   C1F 6261   3.375   0.850   4.114 -0.1805  0.2932  0.1330
  121POPC   C1G 6262   3.487   0.748   4.090 -0.4519 -0.0056  0.1267
  121POPC   C1H 6263   3.458   0.624   4.006  0.2779 -0.1338  0.0574
  121POPC   C1I 6264   3.575   0.530   4.037 -0.0963 -0.4006  0.6787
  121POPC   C1J 6265   3.562   0.398   4.041  0.3458 -0.4719 -0.0999
  121POPC   C1K 6266   3.431   0.333   3.994  0.1896  0.2417 -0.6770
  121POPC   C1L 6267   3.439   0.200   3.920  0.1162 -0.2102  0.1208
  121POPC   C1M 6268   3.309   0.122   3.941  0.0203 -0.0580  0.0962
  121POPC   C1N 6269   3.314   6.340   3.849 -0.3799  0.1480 -0.2027
  121POPC   C1O 6270   3.317   0.033   3.700  0.5453  0.5656 -0.0955
  121POPC   C1P 6271   3.334   6.246   3.617 -0.2321  0.2079  0.2881
  121POPC   C1Q 6272   3.475   6.186   3.611 -0.1260  0.4874 -0.0066
  121POPC   C1R 6273   3.578   6.269   3.534 -0.0655  0.2262 -0.2067
  121POPC    CE 6274   3.529   0.346   4.578 -0.6525 -0.3958 -0.1939
  121POPC    OG 6275   3.606   0.358   4.457 -0.3653 -0.1077  0.0171
  121POPC   C2A 6276   3.738   0.374   4.459 -0.3633 -0.0793 -0.3546
  121POPC    OH 6277   3.794   0.395   4.566 -0.2909 -0.2338 -0.3617
  121POPC   C2B 6278   3.813   0.368   4.331 -0.4393 -0.4028 -0.3856
  121POPC   C2C 6279   3.879   0.230   4.326 -0.5972 -0.5310  0.6984
  121POPC   C2D 6280   3.913   0.229   4.177 -0.3873  0.1355  0.7401
  121POPC   C2E 6281   4.016   0.119   4.147 -0.3212  0.4136 -0.0955
  121POPC   C2F 6282   4.089   0.144   4.015  0.4629  0.4484  0.3426
  121POPC   C2G 6283   4.190   0.031   3.991 -0.0282  0.1041 -0.1114
  121POPC   C2H 6284   4.256   0.039   3.854  0.2783 -0.7893 -0.0265
  121POPC   C2I 6285   4.372   6.283   3.828  0.1603 -0.8901 -0.1811
  121POPC   C2J 6286   4.397   6.255   3.679 -0.8948  0.2359 -0.5872
  121POPC   C2K 6287   4.502   6.150   3.644 -0.3607  0.5275  0.1244
  121POPC   C2L 6288   4.482   6.120   3.496  0.0960  0.4624  0.0741
  121POPC   C2M 6289   4.564   5.998   3.451 -0.3344 -0.0087  0.5582
  121POPC   C2N 6290   4.574   5.987   3.299  0.1992 -0.4717  0.6264
  121POPC   C2O 6291   4.687   5.893   3.257  0.4776 -0.0131  0.3464
  121POPC   C2P 6292   4.624   5.754   3.269 -0.3985  0.3626  0.1460
  122POPC   CN1 6293   4.643   3.715   5.086 -0.1545  0.1640 -0.7725
  122POPC   CN2 6294   4.822   3.610   4.985  0.0378 -0.1565 -0.3292
  122POPC   CN3 6295   4.674   3.736   4.849 -0.0438  0.6718 -0.0142
  122POPC   NTM 6296   4.681   3.644   4.963  0.1086 -0.0260 -0.5820
  122POPC    CA 6297   4.614   3.513   4.960  0.0846 -0.0303 -0.0188
  122POPC    CB 6298   4.582   3.432   4.833 -0.0958 -0.6085  0.3926
  122POPC    OA 6299   4.670   3.449   4.722 -0.6724 -0.5163 -0.0514
  122POPC     P 6300   4.782   3.334   4.715 -0.0079  0.1318 -0.1496
  122POPC    OB 6301   4.735   3.246   4.606  0.2619 -0.1211 -0.0640
  122POPC    OC 6302   4.808   3.273   4.847 -0.3002  0.2577 -0.0340
  122POPC    OD 6303   4.914   3.418   4.677 -0.0139  0.0490 -0.3540
  122POPC    CC 6304   4.955   3.428   4.540 -0.5422 -0.6595 -0.5672
  122POPC    CD 6305   4.924   3.562   4.474 -0.0108 -0.2048  0.0966
  122POPC    OE 6306   4.927   3.564   4.331  0.4608  0.0248  0.1069
  122POPC   C1A 6307   4.862   3.660   4.266 -0.1507 -0.4103  0.0666
  122POPC    OF 6308   4.772   3.715   4.330 -0.1921 -0.4443  0.0379
  122POPC   C1B 6309   4.910   3.686   4.128 -0.1484 -0.1248  0.1191
  122POPC   C1C 6310   4.990   3.815   4.118 -0.3696  0.0336  0.3609
  122POPC   C1D 6311   5.033   3.842   3.973  0.3611 -0.1124  0.5470
  122POPC   C1E 6312   5.098   3.979   3.951 -0.1206  0.0972  0.4203
  122POPC   C1F 6313   5.227   3.999   4.031  0.3157 -0.4767 -0.1351
  122POPC   C1G 6314   5.307   4.127   4.007 -0.1380 -0.1402  0.1394
  122POPC   C1H 6315   5.210   4.245   4.012  0.1727  0.1124  0.1875
  122POPC   C1I 6316   5.280   4.375   3.971 -0.6814  0.6482  0.4108
  122POPC   C1J 6317   5.238   4.433   3.859  0.0606  0.4539  0.0268
  122POPC   C1K 6318   5.147   4.351   3.767  0.8255 -0.1482 -0.2060
  122POPC   C1L 6319   5.184   4.347   3.619 -0.7209  0.3812 -0.6328
  122POPC   C1M 6320   5.147   4.214   3.553  0.2992 -0.2273 -0.0122
  122POPC   C1N 6321   5.152   4.218   3.400  0.0464 -0.0315 -0.0157
  122POPC   C1O 6322   5.278   4.274   3.334  0.2210 -0.4418 -0.0377
  122POPC   C1P 6323   5.283   4.233   3.187  0.3458 -0.0043 -0.1577
  122POPC   C1Q 6324   5.232   4.356   3.112  0.2096  0.0520  0.0273
  122POPC   C1R 6325   5.258   4.346   2.962 -0.2770 -0.2539 -0.0393
  122POPC    CE 6326   5.025   3.658   4.538  0.0045 -0.3003  0.2164
  122POPC    OG 6327   5.160   3.632   4.500 -0.0188  0.1499 -0.1834
  122POPC   C2A 6328   5.219   3.727   4.427  0.1961  0.4897  0.4222
  122POPC    OH 6329   5.168   3.838   4.416 -0.3797  0.1824 -0.0818
  122POPC   C2B 6330   5.352   3.690   4.372 -0.2865 -0.1405 -0.3587
  122POPC   C2C 6331   5.380   3.742   4.231 -0.1500  0.1993 -0.2068
  122POPC   C2D 6332   5.504   3.665   4.185  0.0330  0.0988  0.4371
  122POPC   C2E 6333   5.562   3.725   4.057 -0.1802 -0.5210  0.0437
  122POPC   C2F 6334   5.464   3.708   3.941  0.2921 -0.2964 -0.3933
  122POPC   C2G 6335   5.507   3.786   3.816 -0.0939  0.2653 -0.1788
  122POPC   C2H 6336   5.403   3.778   3.705  0.3440 -0.4461 -0.5456
  122POPC   C2I 6337   5.465   3.863   3.594  0.2170  0.1673 -0.1546
  122POPC   C2J 6338   5.567   3.789   3.505 -0.2625 -0.1319 -0.4608
  122POPC   C2K 6339   5.629   3.881   3.400 -0.0375  0.0231 -0.1932
  122POPC   C2L 6340   5.724   3.979   3.470 -0.2287  0.1933 -0.1700
  122POPC   C2M 6341   5.819   4.042   3.369  0.1643  0.1079  0.1393
  122POPC   C2N 6342   5.925   3.945   3.317  0.2061  0.3775 -0.2900
  122POPC   C2O 6343   5.999   4.018   3.205  0.1129  0.2855 -0.4117
  122POPC   C2P 6344   6.101   3.918   3.151  0.3631 -0.0037  0.5771
  123POPC   CN1 6345   5.537   0.910   4.688 -0.3087  0.2043 -0.7995
  123POPC   CN2 6346   5.706   0.772   4.646  0.0505  0.4112  0.2534
  123POPC   CN3 6347   5.521   0.700   4.779  0.2043  0.2645 -0.0886
  123POPC   NTM 6348   5.618   0.808   4.758 -0.2808  0.7004 -0.0992
  123POPC    CA 6349   5.677   0.860   4.882 -0.4343  0.3247  0.1299
  123POPC    CB 6350   5.761   0.988   4.885  0.0822  0.0052 -0.4076
  123POPC    OA 6351   5.894   0.991   4.834  0.2112  0.2786 -0.0588
  123POPC     P 6352   5.930   1.145   4.800  0.3182  0.2640 -0.0105
  123POPC    OB 6353   6.078   1.153   4.801  0.3512 -0.2949  0.5740
  123POPC    OC 6354   5.852   1.223   4.898  0.1870  0.5380 -0.3355
  123POPC    OD 6355   5.873   1.157   4.650  0.0257  0.2025  0.0961
  123POPC    CC 6356   5.951   1.098   4.546 -0.1791 -0.4630  0.3138
  123POPC    CD 6357   5.881   1.029   4.429  0.2432  0.2540 -0.3658
  123POPC    OE 6358   5.973   0.961   4.343  0.1043 -0.2156 -0.1425
  123POPC   C1A 6359   5.984   0.830   4.366  0.5521 -0.0920  0.3452
  123POPC    OF 6360   5.907   0.774   4.444  0.3006 -0.3878 -0.1141
  123POPC   C1B 6361   6.092   0.767   4.288  0.3121 -0.4263  0.2786
  123POPC   C1C 6362   6.052   0.659   4.188 -0.5113  0.0602  0.0716
  123POPC   C1D 6363   5.963   0.708   4.074  0.2657  0.2844 -0.4426
  123POPC   C1E 6364   5.939   0.595   3.974 -0.3725 -0.0604  0.0954
  123POPC   C1F 6365   5.880   0.644   3.841 -0.3369  0.4208  0.2545
  123POPC   C1G 6366   5.842   0.529   3.747  0.0464  0.1176  0.4669
  123POPC   C1H 6367   5.824   0.567   3.600 -0.2618  0.1297  0.5073
  123POPC   C1I 6368   5.953   0.584   3.520 -0.2081 -0.9202  0.3587
  123POPC   C1J 6369   5.976   0.550   3.393 -0.0792  0.3599  0.0257
  123POPC   C1K 6370   5.876   0.469   3.310  0.2453 -0.0383  0.0166
  123POPC   C1L 6371   5.931   0.469   3.167 -0.0409 -0.2983 -0.0935
  123POPC   C1M 6372   5.835   0.406   3.065  0.0941 -0.0998 -0.3410
  123POPC   C1N 6373   5.893   0.436   2.927  0.5076 -0.5551 -0.2690
  123POPC   C1O 6374   5.785   0.431   2.818  0.0576 -0.3530  0.1670
  123POPC   C1P 6375   5.705   0.302   2.800  0.2423 -0.4313 -0.0962
  123POPC   C1Q 6376   5.580   0.330   2.715  0.1465  0.3586  0.2985
  123POPC   C1R 6377   5.470   0.408   2.788 -0.0720  0.3321 -0.0002
  123POPC    CE 6378   5.786   1.130   4.363  0.2234  0.3862 -0.1348
  123POPC    OG 6379   5.855   1.241   4.306  0.4348  0.3516  0.0535
  123POPC   C2A 6380   5.863   1.229   4.174  0.3217 -0.0028  0.0771
  123POPC    OH 6381   5.787   1.158   4.108  0.2578 -0.4249  0.6024
  123POPC   C2B 6382   5.925   1.355   4.126 -0.0615  0.2768  0.3020
  123POPC   C2C 6383   5.904   1.392   3.979  0.7869 -0.0529  0.0915
  123POPC   C2D 6384   6.005   1.327   3.884  0.3239 -0.2429 -0.2713
  123POPC   C2E 6385   5.963   1.329   3.737  0.5032 -0.5092 -0.3278
  123POPC   C2F 6386   5.957   1.466   3.668  0.5506 -0.6490 -0.6092
  123POPC   C2G 6387   5.918   1.455   3.520 -0.7653  0.3548 -0.3442
  123POPC   C2H 6388   5.920   1.580   3.433 -0.1652  0.7692  0.2549
  123POPC   C2I 6389   5.851   1.545   3.301  0.1523  0.1248  0.2575
  123POPC   C2J 6390   5.940   1.483   3.193 -0.2131  0.4580 -0.2408
  123POPC   C2K 6391   6.031   1.593   3.138  0.6280  0.1828  0.5704
  123POPC   C2L 6392   6.133   1.534   3.039  0.1603  0.1880  0.0812
  123POPC   C2M 6393   6.246   1.452   3.101 -0.5707 -0.9425 -0.0518
  123POPC   C2N 6394   0.031   1.409   2.990 -0.2542 -0.1420 -0.0968
  123POPC   C2O 6395   0.131   1.520   2.960  0.4226 -0.5459  0.6280
  123POPC   C2P 6396   0.220   1.479   2.842  0.3452 -0.3068  0.4849
  124POPC   CN1 6397   4.499   3.394   4.433  0.8190  0.2772 -0.0353
  124POPC   CN2 6398   4.306   3.494   4.328 -0.2132  0.4969 -0.0294
  124POPC   CN3 6399   4.520   3.506   4.220  0.2200  0.1599  0.0481
  124POPC   NTM 6400   4.451   3.506   4.350 -0.1372 -0.2003 -0.1379
  124POPC    CA 6401   4.482   3.630   4.423  0.5796 -0.6060  0.2565
  124POPC    CB 6402   4.434   3.672   4.562 -0.0773 -0.0144 -0.1467
  124POPC    OA 6403   4.292   3.664   4.581 -0.1406  0.4705 -0.3901
  124POPC     P 6404   4.249   3.672   4.736  0.1230  0.0204 -0.2914
  124POPC    OB 6405   4.105   3.701   4.746  0.1921  0.2642  0.0254
  124POPC    OC 6406   4.348   3.752   4.812 -0.1405  0.0895 -0.0212
  124POPC    OD 6407   4.269   3.515   4.767  0.0439  0.0614 -0.0293
  124POPC    CC 6408   4.170   3.442   4.694 -0.0029  0.2254 -0.1287
  124POPC    CD 6409   4.166   3.295   4.736 -0.7949  0.2065 -0.2591
  124POPC    OE 6410   4.076   3.210   4.666 -0.4682  0.1860 -0.6588
  124POPC   C1A 6411   4.114   3.166   4.546  0.3209  0.1763 -0.4051
  124POPC    OF 6412   4.218   3.204   4.492  0.2740  0.3686 -0.3609
  124POPC   C1B 6413   4.013   3.080   4.482  0.1929  0.1667 -0.1914
  124POPC   C1C 6414   3.937   3.155   4.372  0.0646 -0.1549 -0.3250
  124POPC   C1D 6415   3.955   3.089   4.235  0.3507 -0.0691 -0.3297
  124POPC   C1E 6416   3.933   3.195   4.127  0.1935  0.2419  0.0034
  124POPC   C1F 6417   4.040   3.190   4.017  0.0321  0.0299 -0.1468
  124POPC   C1G 6418   4.177   3.241   4.060  0.2880 -0.6708 -0.1296
  124POPC   C1H 6419   4.270   3.242   3.938  0.1295 -0.7294 -0.2503
  124POPC   C1I 6420   4.410   3.273   3.990 -0.1815  0.0372  0.1470
  124POPC   C1J 6421   4.506   3.302   3.903  0.1424 -0.5385  0.3043
  124POPC   C1K 6422   4.453   3.313   3.760  0.0949  0.2831  0.3793
  124POPC   C1L 6423   4.555   3.352   3.653  0.0867 -0.1357  0.2168
  124POPC   C1M 6424   4.488   3.327   3.518 -0.1250  0.3260  0.2357
  124POPC   C1N 6425   4.574   3.355   3.394  0.5384 -0.3389  0.5422
  124POPC   C1O 6426   4.702   3.272   3.390  0.8507  0.1591  0.1145
  124POPC   C1P 6427   4.792   3.311   3.272  0.4992  0.5234 -0.0347
  124POPC   C1Q 6428   4.925   3.236   3.264 -0.0801 -0.5729  0.3514
  124POPC   C1R 6429   5.020   3.265   3.381  0.3109  0.7097 -0.2559
  124POPC    CE 6430   4.144   3.308   4.887  0.2719  0.5562 -0.1245
  124POPC    OG 6431   4.166   3.187   4.960  0.2089  0.1431 -0.7778
  124POPC   C2A 6432   4.286   3.165   5.013 -0.0434 -0.0014 -0.2642
  124POPC    OH 6433   4.382   3.240   4.996 -0.0015  0.1155  0.4509
  124POPC   C2B 6434   4.297   3.037   5.087 -0.1296  0.2117  0.1258
  124POPC   C2C 6435   4.387   2.935   5.017  0.3499  0.5974  0.1782
  124POPC   C2D 6436   4.333   2.909   4.876  0.0149  0.0915  0.3953
  124POPC   C2E 6437   4.426   2.809   4.806  0.1735  0.3321  0.2565
  124POPC   C2F 6438   4.565   2.865   4.776  0.0894  0.3407 -0.1133
  124POPC   C2G 6439   4.583   2.967   4.663 -0.3025  0.3128 -0.2023
  124POPC   C2H 6440   4.538   2.918   4.525 -0.0480 -0.5801  0.0271
  124POPC   C2I 6441   4.543   3.040   4.433  0.2822 -0.7215 -0.1465
  124POPC   C2J 6442   4.500   3.002   4.291  0.6443 -0.6293 -0.2821
  124POPC   C2K 6443   4.354   2.956   4.276  0.2595  0.2863  0.5531
  124POPC   C2L 6444   4.339   2.900   4.134 -0.6444  0.2670  0.6540
  124POPC   C2M 6445   4.215   2.813   4.115 -0.1347 -0.2971 -0.1234
  124POPC   C2N 6446   4.229   2.706   4.006  0.9056 -0.8089  0.5036
  124POPC   C2O 6447   4.101   2.622   4.002  0.2052  0.2470  0.4494
  124POPC   C2P 6448   4.117   2.510   3.899  0.0027  0.3692  0.2825
  125POPC   CN1 6449   3.493   5.172   4.898  0.3640  0.1438  0.2301
  125POPC   CN2 6450   3.367   5.202   4.703  0.8403 -0.4794  0.0571
  125POPC   CN3 6451   3.392   5.387   4.856 -0.2626 -0.1114  0.2114
  125POPC   NTM 6452   3.376   5.242   4.844  0.2870 -0.1576  0.0058
  125POPC    CA 6453   3.258   5.200   4.922  0.1041  0.1908 -0.0827
  125POPC    CB 6454   3.119   5.255   4.888 -0.0055 -0.0974 -0.1034
  125POPC    OA 6455   3.097   5.392   4.854  0.2086 -0.0171  0.0780
  125POPC     P 6456   2.945   5.415   4.807  0.2098 -0.4623 -0.1474
  125POPC    OB 6457   2.879   5.547   4.824  0.2612 -0.3456 -0.7963
  125POPC    OC 6458   2.867   5.293   4.837 -0.1529 -0.3608 -0.6658
  125POPC    OD 6459   2.974   5.400   4.649  0.1713  0.1384 -0.2159
  125POPC    CC 6460   3.042   5.516   4.602  0.1449  0.4285  0.4509
  125POPC    CD 6461   3.180   5.501   4.537 -0.0432 -0.3969  0.2412
  125POPC    OE 6462   3.248   5.626   4.527 -0.5846 -0.1243 -0.0700
  125POPC   C1A 6463   3.380   5.620   4.540 -0.5829 -0.3121 -0.1699
  125POPC    OF 6464   3.439   5.520   4.581 -0.0933  0.0782  0.0911
  125POPC   C1B 6465   3.448   5.749   4.513 -0.8944 -0.1684 -0.2690
  125POPC   C1C 6466   3.571   5.738   4.423 -0.3508  0.4873  0.3755
  125POPC   C1D 6467   3.533   5.701   4.280  0.3286 -0.1888  0.3625
  125POPC   C1E 6468   3.656   5.712   4.189  0.0678  0.0970  0.0402
  125POPC   C1F 6469   3.647   5.659   4.046  0.3533  0.1841 -0.0092
  125POPC   C1G 6470   3.785   5.668   3.981  0.2905  0.0331 -0.1640
  125POPC   C1H 6471   3.790   5.563   3.869  0.0151  0.2844 -0.4135
  125POPC   C1I 6472   3.928   5.553   3.803 -0.0733 -0.1180 -0.5359
  125POPC   C1J 6473   3.951   5.471   3.700  0.0097 -0.7421 -0.0306
  125POPC   C1K 6474   3.835   5.400   3.632 -0.3424 -0.2916  0.0900
  125POPC   C1L 6475   3.890   5.355   3.496  0.0992  0.0647  0.1481
  125POPC   C1M 6476   3.787   5.283   3.408  0.4471 -0.0645 -0.1558
  125POPC   C1N 6477   3.846   5.171   3.322 -0.0088 -0.7033  0.3481
  125POPC   C1O 6478   3.745   5.078   3.255 -0.4633  0.2598 -0.3220
  125POPC   C1P 6479   3.634   5.021   3.344  0.2199  0.0359  0.4046
  125POPC   C1Q 6480   3.585   4.905   3.258  0.1628  0.2318  0.1709
  125POPC   C1R 6481   3.470   4.850   3.342  0.0451  0.1218 -0.0613
  125POPC    CE 6482   3.162   5.418   4.409 -0.4003  0.1090 -0.0389
  125POPC    OG 6483   3.072   5.464   4.307 -0.3509 -0.3760 -0.3019
  125POPC   C2A 6484   3.129   5.502   4.193  0.2870  0.1624  0.1886
  125POPC    OH 6485   3.247   5.538   4.189  0.1885  0.4998  0.2823
  125POPC   C2B 6486   3.026   5.524   4.089 -0.0167 -0.1270  0.4277
  125POPC   C2C 6487   3.021   5.400   4.000 -0.4667 -0.0963  0.4072
  125POPC   C2D 6488   2.920   5.412   3.885  0.0200  0.2902  0.0154
  125POPC   C2E 6489   2.984   5.470   3.759 -0.1748  0.5968  0.0573
  125POPC   C2F 6490   2.885   5.476   3.643 -0.2242  0.2235  0.0818
  125POPC   C2G 6491   2.946   5.529   3.514  0.1995  0.3288  0.3263
  125POPC   C2H 6492   3.006   5.670   3.517  0.3979  0.2408  0.5035
  125POPC   C2I 6493   2.899   5.777   3.537 -0.1638 -0.1936 -0.1335
  125POPC   C2J 6494   2.965   5.912   3.569  0.3259 -0.4750  0.0453
  125POPC   C2K 6495   2.862   6.022   3.593  0.3863 -0.3996 -0.0412
  125POPC   C2L 6496   2.761   6.020   3.478  0.2913  0.3288  0.0264
  125POPC   C2M 6497   2.620   6.078   3.488  0.1017 -0.0917 -0.2268
  125POPC   C2N 6498   2.615   6.230   3.472  0.2745 -0.0251  0.3496
  125POPC   C2O 6499   2.495   6.267   3.385  0.3445  0.0817  0.2995
  125POPC   C2P 6500   2.528   0.057   3.311 -0.0476  0.0194  0.0140
  126POPC   CN1 6501   2.882   1.481   4.956  0.0676  0.0313 -0.5104
  126POPC   CN2 6502   3.053   1.510   4.785  0.6661 -0.0173  0.8746
  126POPC   CN3 6503   2.828   1.481   4.735  0.4589  0.2657 -0.4845
  126POPC   NTM 6504   2.934   1.435   4.826  0.2434 -0.0715 -0.4048
  126POPC    CA 6505   2.962   1.291   4.815  0.9155  0.0279 -0.0310
  126POPC    CB 6506   2.951   1.187   4.704 -0.0252  0.0376  0.0452
  126POPC    OA 6507   2.999   1.254   4.587  0.1223  0.0846  0.1330
  126POPC     P 6508   3.146   1.211   4.535 -0.0971 -0.3621 -0.1281
  126POPC    OB 6509   3.100   1.128   4.421 -0.3345 -0.0141 -0.2883
  126POPC    OC 6510   3.222   1.172   4.655 -0.2085  0.1967  0.1275
  126POPC    OD 6511   3.185   1.358   4.480  0.0570 -0.2485  0.2789
  126POPC    CC 6512   3.102   1.406   4.374  0.2221  0.1278  0.3186
  126POPC    CD 6513   3.148   1.539   4.315  0.4571 -0.1244 -0.0743
  126POPC    OE 6514   3.060   1.646   4.350  0.0012 -0.4593 -0.1896
  126POPC   C1A 6515   3.085   1.712   4.463 -1.1149 -0.5430  0.1124
  126POPC    OF 6516   3.151   1.670   4.558 -0.0283 -0.0010 -0.3896
  126POPC   C1B 6517   3.009   1.838   4.477  0.5371  0.4364  0.3693
  126POPC   C1C 6518   3.032   1.966   4.396  0.0357  0.2231 -0.1119
  126POPC   C1D 6519   2.988   1.973   4.250  0.2587 -0.4230 -0.2118
  126POPC   C1E 6520   2.835   1.962   4.244  0.1876  0.4206  0.0561
  126POPC   C1F 6521   2.801   1.944   4.096  0.0712  0.0323  0.1308
  126POPC   C1G 6522   2.807   1.799   4.049  0.1905 -0.1065  0.5612
  126POPC   C1H 6523   2.796   1.815   3.897 -0.5061 -0.0447  0.6164
  126POPC   C1I 6524   2.817   1.685   3.820  0.4245  0.5536 -0.1695
  126POPC   C1J 6525   2.772   1.666   3.696 -0.0057  0.0483  0.0604
  126POPC   C1K 6526   2.693   1.778   3.628  0.1261 -0.2330 -0.5611
  126POPC   C1L 6527   2.608   1.723   3.513 -0.4696 -0.1463 -0.1679
  126POPC   C1M 6528   2.514   1.821   3.442 -0.3538  0.3342  0.3292
  126POPC   C1N 6529   2.587   1.947   3.396 -0.3551  0.2336  0.0474
  126POPC   C1O 6530   2.508   2.039   3.302 -0.5234  0.3551  0.3052
  126POPC   C1P 6531   2.609   2.148   3.267 -0.0752 -0.3025 -0.4796
  126POPC   C1Q 6532   2.562   2.280   3.206 -0.3488 -0.0683  0.2296
  126POPC   C1R 6533   2.504   2.248   3.068 -0.2149 -0.3495  0.2382
  126POPC    CE 6534   3.149   1.512   4.164 -0.2892 -0.1188 -0.0815
  126POPC    OG 6535   3.223   1.400   4.116 -0.2542 -0.2088  0.1803
  126POPC   C2A 6536   3.157   1.310   4.044 -0.2594 -0.3544  0.3659
  126POPC    OH 6537   3.035   1.318   4.030 -0.1326  0.3204 -0.4113
  126POPC   C2B 6538   3.232   1.188   4.009 -0.0088 -0.0722 -0.0894
  126POPC   C2C 6539   3.295   1.200   3.870  0.2067 -0.0235  0.0115
  126POPC   C2D 6540   3.414   1.108   3.843  0.2152 -0.2099  0.6671
  126POPC   C2E 6541   3.465   1.103   3.699  0.0566  0.4910  0.5865
  126POPC   C2F 6542   3.591   1.017   3.689  0.0635  0.5713 -0.0573
  126POPC   C2G 6543   3.628   0.993   3.542  0.2700 -0.1702  0.1166
  126POPC   C2H 6544   3.763   0.923   3.520  0.4678  0.1130  0.4225
  126POPC   C2I 6545   3.800   0.927   3.372 -0.0643 -0.0962  0.2809
  126POPC   C2J 6546   3.910   0.831   3.326 -0.2569 -0.1356 -0.1063
  126POPC   C2K 6547   3.942   0.841   3.177 -0.1670  0.1502 -0.0689
  126POPC   C2L 6548   3.837   0.777   3.086  0.3032  0.3690 -0.7673
  126POPC   C2M 6549   3.883   0.818   2.946  0.3673 -0.0411 -0.8697
  126POPC   C2N 6550   4.010   0.741   2.911  0.5069 -0.0695 -0.3085
  126POPC   C2O 6551   4.037   0.768   2.763  0.6299  0.0790 -0.2589
  126POPC   C2P 6552   4.139   0.675   2.696  0.5023  0.0012 -0.3446
  127POPC   CN1 6553   2.942   2.750   4.927 -0.3798  0.2361  0.1234
  127POPC   CN2 6554   2.948   2.661   5.152 -0.2919 -0.3832 -0.2711
  127POPC   CN3 6555   2.832   2.862   5.088  0.0870 -0.0989  0.0526
  127POPC   NTM 6556   2.955   2.783   5.070  0.0959 -0.1106  0.1630
  127POPC    CA 6557   3.074   2.859   5.110 -0.1290  0.4324 -0.1962
  127POPC    CB 6558   3.213   2.831   5.053  0.0310  0.0306  0.3913
  127POPC    OA 6559   3.236   2.690   5.059  0.2632  0.0612  0.2450
  127POPC     P 6560   3.321   2.632   4.935 -0.3350 -0.2692 -0.0160
  127POPC    OB 6561   3.429   2.552   4.997 -0.0698  0.0971 -0.0046
  127POPC    OC 6562   3.353   2.750   4.851  0.2608 -0.1904  0.3187
  127POPC    OD 6563   3.202   2.544   4.872 -0.4087 -0.1240 -0.0815
  127POPC    CC 6564   3.174   2.435   4.960 -0.3261 -0.1138 -0.0432
  127POPC    CD 6565   3.053   2.354   4.913 -0.4042  0.1557 -0.3081
  127POPC    OE 6566   3.010   2.267   5.019 -0.1573 -0.1063 -0.4195
  127POPC   C1A 6567   2.894   2.277   5.082  0.1825  0.1061  0.1752
  127POPC    OF 6568   2.842   2.389   5.088 -0.3261 -0.1079 -0.1443
  127POPC   C1B 6569   2.869   2.171   5.183  0.1031 -0.1565 -0.1205
  127POPC   C1C 6570   2.723   2.125   5.189  0.1739 -0.4407 -0.4981
  127POPC   C1D 6571   2.727   1.982   5.243 -0.2034 -0.1854  0.2172
  127POPC   C1E 6572   2.597   1.903   5.226 -0.2405  0.0114 -0.4428
  127POPC   C1F 6573   2.554   1.874   5.082 -0.4074  0.2358 -0.4384
  127POPC   C1G 6574   2.656   1.810   4.989 -0.0603  0.0633  0.0547
  127POPC   C1H 6575   2.597   1.812   4.847 -0.2351 -0.4681  0.1156
  127POPC   C1I 6576   2.713   1.819   4.748 -0.5156  0.1806 -0.1724
  127POPC   C1J 6577   2.668   1.846   4.626 -0.2158 -0.1235 -0.3521
  127POPC   C1K 6578   2.517   1.863   4.605 -0.2893 -0.2846  0.0276
  127POPC   C1L 6579   2.481   1.836   4.459 -0.0289  0.1504 -0.1210
  127POPC   C1M 6580   2.334   1.855   4.422 -0.0995 -0.8616 -0.4049
  127POPC   C1N 6581   2.298   1.999   4.383  0.2646 -0.6159  0.1582
  127POPC   C1O 6582   2.382   2.059   4.270 -0.0161 -0.2352  0.1523
  127POPC   C1P 6583   2.335   2.005   4.135 -0.3615 -0.0318  0.1895
  127POPC   C1Q 6584   2.404   2.048   4.005 -0.4401  0.1136  0.1959
  127POPC   C1R 6585   2.318   1.990   3.892 -0.4540 -0.0659  0.2987
  127POPC    CE 6586   3.090   2.269   4.791  0.8582  0.4586 -0.1552
  127POPC    OG 6587   3.193   2.175   4.822  0.3883  0.0786  0.2799
  127POPC   C2A 6588   3.167   2.048   4.852  0.1729 -0.0181 -0.2923
  127POPC    OH 6589   3.064   1.999   4.807 -0.0312  0.2080 -0.0726
  127POPC   C2B 6590   3.282   1.965   4.895 -0.0828 -0.1856  0.0757
  127POPC   C2C 6591   3.325   1.869   4.784 -0.2214  0.1405 -0.2648
  127POPC   C2D 6592   3.368   1.947   4.660  0.1032  0.3846 -0.0020
  127POPC   C2E 6593   3.441   1.865   4.553  0.5846  0.4993  0.2351
  127POPC   C2F 6594   3.447   1.928   4.414  0.1244 -0.2240 -0.1246
  127POPC   C2G 6595   3.480   1.828   4.304  0.4983 -0.1294 -0.0999
  127POPC   C2H 6596   3.471   1.879   4.159 -0.0498 -0.6814 -0.2630
  127POPC   C2I 6597   3.329   1.910   4.114  0.0943  0.0594 -0.2132
  127POPC   C2J 6598   3.323   1.919   3.961  0.0589 -0.2671 -0.2320
  127POPC   C2K 6599   3.179   1.934   3.912 -0.0567 -0.0886  0.1527
  127POPC   C2L 6600   3.196   2.027   3.791  0.0085  0.1472  0.3418
  127POPC   C2M 6601   3.074   2.051   3.703  0.1195  0.5937  0.3090
  127POPC   C2N 6602   2.962   2.132   3.769 -0.1620  0.2461  0.2637
  127POPC   C2O 6603   2.842   2.153   3.676  0.2947  0.4384 -0.2880
  127POPC   C2P 6604   2.722   2.212   3.749  0.8391  0.4220  0.6426
  128POPC   CN1 6605   2.240   1.052   4.691  0.4092  0.0665  0.1146
  128POPC   CN2 6606   2.371   1.051   4.490  0.1576  0.0935 -0.0189
  128POPC   CN3 6607   2.287   0.848   4.591  0.2317  0.1040 -0.4289
  128POPC   NTM 6608   2.344   0.981   4.616  0.2660  0.0168 -0.0393
  128POPC    CA 6609   2.471   0.947   4.682  0.4030 -0.1981 -0.4056
  128POPC    CB 6610   2.545   1.064   4.749  0.1906 -0.0112 -0.4975
  128POPC    OA 6611   2.498   1.147   4.856 -0.0115 -0.6494 -0.0821
  128POPC     P 6612   2.595   1.187   4.979 -0.2458  0.1002 -0.1403
  128POPC    OB 6613   2.568   1.329   5.014 -0.7858 -0.0486  0.0661
  128POPC    OC 6614   2.730   1.143   4.938  0.0303  0.3948  0.4413
  128POPC    OD 6615   2.531   1.094   5.093 -0.2050  0.2673  0.0190
  128POPC    CC 6616   2.413   1.145   5.156 -0.2088 -0.0078  0.2368
  128POPC    CD 6617   2.286   1.067   5.121 -0.1250  0.1783 -0.4972
  128POPC    OE 6618   2.176   1.131   5.185  0.1415  0.3659 -0.2190
  128POPC   C1A 6619   2.112   1.232   5.127 -0.1480  0.3058 -0.0080
  128POPC    OF 6620   2.163   1.281   5.027  0.5839  0.4826  0.4475
  128POPC   C1B 6621   2.001   1.286   5.209 -0.3078 -0.0857  0.0354
  128POPC   C1C 6622   1.855   1.252   5.175 -0.1691 -0.3078 -0.3481
  128POPC   C1D 6623   1.843   1.283   5.026  0.0213 -0.4213 -0.3889
  128POPC   C1E 6624   1.702   1.241   4.983  0.0781 -0.7059 -0.2938
  128POPC   C1F 6625   1.659   1.270   4.839  0.3001  0.0995 -0.2036
  128POPC   C1G 6626   1.696   1.414   4.805 -0.3108  0.3385  0.1298
  128POPC   C1H 6627   1.589   1.482   4.721 -0.6700 -0.2613  0.0969
  128POPC   C1I 6628   1.599   1.431   4.577 -0.2956  0.2185 -0.0511
  128POPC   C1J 6629   1.489   1.398   4.510 -0.4892  0.8947 -0.0807
  128POPC   C1K 6630   1.349   1.427   4.565 -0.7503  0.3477 -0.4362
  128POPC   C1L 6631   1.259   1.304   4.557  0.0937 -0.2850 -0.3607
  128POPC   C1M 6632   1.136   1.311   4.648 -0.2230 -0.6360 -0.7542
  128POPC   C1N 6633   1.090   1.168   4.673  0.1922 -0.6258  0.1054
  128POPC   C1O 6634   1.187   1.101   4.771  0.3324  0.0249  0.4138
  128POPC   C1P 6635   1.128   0.972   4.829 -0.0801  0.0110 -0.0313
  128POPC   C1Q 6636   0.999   0.986   4.909  0.0129  0.5384  0.0285
  128POPC   C1R 6637   0.949   0.858   4.976  0.3883  0.3437 -0.0629
  128POPC    CE 6638   2.295   0.917   5.153 -0.0555  0.3401  0.2562
  128POPC    OG 6639   2.184   0.833   5.119  0.3597 -0.1201  0.0436
  128POPC   C2A 6640   2.160   0.793   4.995  0.2117  0.0436  0.0202
  128POPC    OH 6641   2.225   0.837   4.900 -0.0787 -0.0262 -0.2140
  128POPC   C2B 6642   2.039   0.709   4.980  0.3491 -0.1187 -0.1802
  128POPC   C2C 6643   1.928   0.776   4.897  0.0531  0.0306  0.3352
  128POPC   C2D 6644   1.820   0.669   4.882  0.5725 -0.3277 -0.9346
  128POPC   C2E 6645   1.700   0.732   4.811 -0.0834 -0.1212  0.3314
  128POPC   C2F 6646   1.582   0.637   4.834 -0.2858  0.1161  0.2863
  128POPC   C2G 6647   1.451   0.674   4.764 -0.2572 -0.1420  0.0949
  128POPC   C2H 6648   1.350   0.562   4.792 -0.4256  0.1425  0.6356
  128POPC   C2I 6649   1.225   0.605   4.714 -0.1384 -0.1756 -0.0085
  128POPC   C2J 6650   1.103   0.520   4.749 -0.2630  0.1632  0.3946
  128POPC   C2K 6651   1.107   0.392   4.666 -0.1130  0.5519 -0.2045
  128POPC   C2L 6652   1.073   0.423   4.520 -0.7949 -0.1008 -0.1886
  128POPC   C2M 6653   1.126   0.309   4.433  0.1394 -0.1741  0.4692
  128POPC   C2N 6654   1.124   0.341   4.284  0.1050 -0.5940  0.3764
  128POPC   C2O 6655   1.178   0.222   4.205 -0.1356 -0.2788 -0.2758
  128POPC   C2P 6656   1.227   0.266   4.067  0.0037  0.2217 -0.0693
   6.31000   6.34000  16.00000
